
     Program BANDS v.6.5Max starts on  8Jun2022 at 14:19:47 

     This program is part of the open-source Quantum ESPRESSO suite
     for quantum simulation of materials; please cite
         "P. Giannozzi et al., J. Phys.:Condens. Matter 21 395502 (2009);
         "P. Giannozzi et al., J. Phys.:Condens. Matter 29 465901 (2017);
          URL http://www.quantum-espresso.org", 
     in publications or presentations arising from this work. More details at
     http://www.quantum-espresso.org/quote

     Parallel version (MPI), running on    16 processors

     MPI processes distributed on     1 nodes
     R & G space division:  proc/nbgrp/npool/nimage =      16

     Reading xml data from directory:

     ./out/3x3_MoS2.save/

     IMPORTANT: XC functional enforced from input :
     Exchange-correlation= PW
                           (   1   4   0   0   0   0   0)
     Any further DFT definition will be discarded
     Please, verify this is what you really want

               file Mo.pw-mt_fhi.UPF: wavefunction(s)  4f renormalized
               file S.pw-mt_fhi.UPF: wavefunction(s)  4f renormalized

     Parallelization info
     --------------------
     sticks:   dense  smooth     PW     G-vecs:    dense   smooth      PW
     Min         781     312     83               138748    35106    4801
     Max         783     313     84               138753    35113    4808
     Sum       12507    4993   1333              2219997   561725   76863

     Reading collected, re-writing distributed wavefunctions
     high-symmetry point:  0.0000 0.0000 0.0000   x coordinate   0.0000
     high-symmetry point:  0.5057-0.2920 0.0000   x coordinate   0.5840
     high-symmetry point:  0.3371-0.5840 0.0000   x coordinate   0.9211
     high-symmetry point:  0.0000 0.0000 0.0000   x coordinate   1.5954

     Plottable bands (eV) written to file 3x3_MoS2.bands.dat.gnu
     Bands written to file 3x3_MoS2.bands.dat

 **************************************************************************

                    xk=(   0.00000,   0.00000,   0.00000  )

     point group C_1 (1)    
     there are  1 classes
     the character table:

       E    
A      1.00

     the symmetry operations in each class and the name of the first element:

     E        1
                                                                 

     Band symmetry, C_1 (1)     point group:

     e(  1 -  1) =    -15.61956  eV     1   --> A              
     e(  2 -  2) =    -14.43547  eV     1   -->   ?
     e(  3 -  4) =    -14.28441  eV     2   -->   ?
     e(  5 -  5) =    -14.22594  eV     1   -->   ?
     e(  6 -  6) =    -14.20978  eV     1   -->   ?
     e(  7 -  7) =    -14.20955  eV     1   -->   ?
     e(  8 -  8) =    -13.94410  eV     1   -->   ?
     e(  9 - 10) =    -13.66874  eV     2   -->   ?
     e( 11 - 11) =    -13.59081  eV     1   -->   ?
     e( 12 - 12) =    -13.56781  eV     1   -->   ?
     e( 13 - 13) =    -13.56766  eV     1   -->   ?
     e( 14 - 14) =    -13.33152  eV     1   -->   ?
     e( 15 - 15) =    -13.25682  eV     1   -->   ?
     e( 16 - 16) =    -13.08960  eV     1   -->   ?
     e( 17 - 17) =    -12.98971  eV     1   -->   ?
     e( 18 - 18) =     -7.06993  eV     1   -->   ?
     e( 19 - 20) =     -6.87369  eV     2   -->   ?
     e( 21 - 21) =     -6.80576  eV     1   -->   ?
     e( 22 - 22) =     -6.74495  eV     1   -->   ?
     e( 23 - 23) =     -6.74478  eV     1   -->   ?
     e( 24 - 24) =     -6.62670  eV     1   -->   ?
     e( 25 - 26) =     -6.55810  eV     2   -->   ?
     e( 27 - 27) =     -5.99416  eV     1   -->   ?
     e( 28 - 28) =     -5.99398  eV     1   -->   ?
     e( 29 - 29) =     -5.80917  eV     1   -->   ?
     e( 30 - 31) =     -5.69444  eV     2   -->   ?
     e( 32 - 32) =     -5.66668  eV     1   -->   ?
     e( 33 - 34) =     -5.65055  eV     2   -->   ?
     e( 35 - 35) =     -5.40722  eV     1   -->   ?
     e( 36 - 36) =     -5.40703  eV     1   -->   ?
     e( 37 - 37) =     -5.33134  eV     1   -->   ?
     e( 38 - 39) =     -5.24217  eV     2   -->   ?
     e( 40 - 40) =     -5.05499  eV     1   -->   ?
     e( 41 - 42) =     -4.95275  eV     2   -->   ?
     e( 43 - 43) =     -4.85662  eV     1   -->   ?
     e( 44 - 44) =     -4.44323  eV     1   -->   ?
     e( 45 - 45) =     -4.36083  eV     1   -->   ?
     e( 46 - 46) =     -4.36072  eV     1   -->   ?
     e( 47 - 47) =     -4.01957  eV     1   -->   ?
     e( 48 - 48) =     -3.94751  eV     1   -->   ?
     e( 49 - 49) =     -3.94735  eV     1   -->   ?
     e( 50 - 50) =     -3.94324  eV     1   -->   ?
     e( 51 - 51) =     -3.76556  eV     1   -->   ?
     e( 52 - 52) =     -3.76535  eV     1   -->   ?
     e( 53 - 53) =     -3.47872  eV     1   -->   ?
     e( 54 - 54) =     -3.38716  eV     1   -->   ?
     e( 55 - 55) =     -3.30976  eV     1   -->   ?
     e( 56 - 56) =     -3.30953  eV     1   -->   ?
     e( 57 - 57) =     -3.15781  eV     1   -->   ?
     e( 58 - 58) =     -2.97993  eV     1   -->   ?
     e( 59 - 60) =     -2.96241  eV     2   -->   ?
     e( 61 - 61) =     -2.83704  eV     1   -->   ?
     e( 62 - 62) =     -2.83692  eV     1   -->   ?
     e( 63 - 63) =     -2.48625  eV     1   -->   ?
     e( 64 - 64) =     -2.48605  eV     1   -->   ?
     e( 65 - 65) =     -2.43864  eV     1   -->   ?
     e( 66 - 67) =     -2.40725  eV     2   -->   ?
     e( 68 - 68) =     -2.38121  eV     1   -->   ?
     e( 69 - 69) =     -2.30423  eV     1   -->   ?
     e( 70 - 71) =     -2.29722  eV     2   -->   ?
     e( 72 - 72) =     -2.26769  eV     1   -->   ?
     e( 73 - 74) =     -2.14926  eV     2   -->   ?
     e( 75 - 75) =     -1.53705  eV     1   -->   ?
     e( 76 - 77) =     -1.18930  eV     2   -->   ?
     e( 78 - 78) =     -1.09244  eV     1   -->   ?
     e( 79 - 79) =      0.17871  eV     1   -->   ?
     e( 80 - 80) =      0.17894  eV     1   -->   ?
     e( 81 - 81) =      0.97864  eV     1   -->   ?
     e( 82 - 82) =      0.97878  eV     1   -->   ?
     e( 83 - 83) =      1.34084  eV     1   -->   ?
     e( 84 - 85) =      1.37323  eV     2   -->   ?
     e( 86 - 86) =      1.38209  eV     1   -->   ?
     e( 87 - 87) =      1.42231  eV     1   -->   ?
     e( 88 - 88) =      1.42241  eV     1   -->   ?
     e( 89 - 90) =      1.56024  eV     2   -->   ?
     e( 91 - 91) =      1.59497  eV     1   -->   ?
     e( 92 - 92) =      1.64960  eV     1   -->   ?
     e( 93 - 93) =      1.84796  eV     1   -->   ?
     e( 94 - 94) =      1.84812  eV     1   -->   ?
     e( 95 - 96) =      2.01345  eV     2   -->   ?
     e( 97 - 98) =      2.22190  eV     2   -->   ?
     e( 99 - 99) =      2.41870  eV     1   -->   ?
     e(100 -100) =      2.59353  eV     1   -->   ?

 **************************************************************************

 **************************************************************************

                    xk=(   0.01405,  -0.00811,   0.00000  )

     Band symmetry, C_1 (1)     point group:

     e(  1 -  1) =    -15.61923  eV     1   -->   ?
     e(  2 -  2) =    -14.43544  eV     1   -->   ?
     e(  3 -  3) =    -14.28885  eV     1   -->   ?
     e(  4 -  4) =    -14.28719  eV     1   -->   ?
     e(  5 -  5) =    -14.23790  eV     1   -->   ?
     e(  6 -  6) =    -14.20646  eV     1   -->   ?
     e(  7 -  7) =    -14.19410  eV     1   -->   ?
     e(  8 -  8) =    -13.94326  eV     1   -->   ?
     e(  9 -  9) =    -13.66955  eV     1   -->   ?
     e( 10 - 10) =    -13.66936  eV     1   -->   ?
     e( 11 - 11) =    -13.59568  eV     1   -->   ?
     e( 12 - 12) =    -13.56682  eV     1   -->   ?
     e( 13 - 13) =    -13.56213  eV     1   -->   ?
     e( 14 - 14) =    -13.33154  eV     1   -->   ?
     e( 15 - 15) =    -13.25711  eV     1   -->   ?
     e( 16 - 16) =    -13.08979  eV     1   -->   ?
     e( 17 - 17) =    -12.98992  eV     1   -->   ?
     e( 18 - 18) =     -7.06958  eV     1   -->   ?
     e( 19 - 19) =     -6.87394  eV     1   -->   ?
     e( 20 - 20) =     -6.87339  eV     1   -->   ?
     e( 21 - 21) =     -6.80958  eV     1   -->   ?
     e( 22 - 22) =     -6.74530  eV     1   -->   ?
     e( 23 - 23) =     -6.74263  eV     1   -->   ?
     e( 24 - 24) =     -6.62772  eV     1   -->   ?
     e( 25 - 25) =     -6.55747  eV     1   -->   ?
     e( 26 - 26) =     -6.55532  eV     1   -->   ?
     e( 27 - 27) =     -5.99846  eV     1   -->   ?
     e( 28 - 28) =     -5.99807  eV     1   -->   ?
     e( 29 - 29) =     -5.81288  eV     1   -->   ?
     e( 30 - 30) =     -5.69140  eV     1   -->   ?
     e( 31 - 31) =     -5.68866  eV     1   -->   ?
     e( 32 - 32) =     -5.67687  eV     1   -->   ?
     e( 33 - 33) =     -5.65019  eV     1   -->   ?
     e( 34 - 34) =     -5.63904  eV     1   -->   ?
     e( 35 - 35) =     -5.40593  eV     1   -->   ?
     e( 36 - 36) =     -5.40581  eV     1   -->   ?
     e( 37 - 37) =     -5.33114  eV     1   -->   ?
     e( 38 - 38) =     -5.24212  eV     1   -->   ?
     e( 39 - 39) =     -5.24198  eV     1   -->   ?
     e( 40 - 40) =     -5.05521  eV     1   -->   ?
     e( 41 - 41) =     -4.95239  eV     1   -->   ?
     e( 42 - 42) =     -4.95203  eV     1   -->   ?
     e( 43 - 43) =     -4.85605  eV     1   -->   ?
     e( 44 - 44) =     -4.44396  eV     1   -->   ?
     e( 45 - 45) =     -4.36142  eV     1   -->   ?
     e( 46 - 46) =     -4.36017  eV     1   -->   ?
     e( 47 - 47) =     -4.02254  eV     1   -->   ?
     e( 48 - 48) =     -3.94870  eV     1   -->   ?
     e( 49 - 49) =     -3.94747  eV     1   -->   ?
     e( 50 - 50) =     -3.94184  eV     1   -->   ?
     e( 51 - 51) =     -3.76645  eV     1   -->   ?
     e( 52 - 52) =     -3.76508  eV     1   -->   ?
     e( 53 - 53) =     -3.47871  eV     1   -->   ?
     e( 54 - 54) =     -3.38760  eV     1   -->   ?
     e( 55 - 55) =     -3.31165  eV     1   -->   ?
     e( 56 - 56) =     -3.30859  eV     1   -->   ?
     e( 57 - 57) =     -3.15675  eV     1   -->   ?
     e( 58 - 58) =     -2.98077  eV     1   -->   ?
     e( 59 - 59) =     -2.96217  eV     1   -->   ?
     e( 60 - 60) =     -2.96147  eV     1   -->   ?
     e( 61 - 61) =     -2.83622  eV     1   -->   ?
     e( 62 - 62) =     -2.83528  eV     1   -->   ?
     e( 63 - 63) =     -2.48822  eV     1   -->   ?
     e( 64 - 64) =     -2.48762  eV     1   -->   ?
     e( 65 - 65) =     -2.44611  eV     1   -->   ?
     e( 66 - 66) =     -2.41669  eV     1   -->   ?
     e( 67 - 67) =     -2.40199  eV     1   -->   ?
     e( 68 - 68) =     -2.37176  eV     1   -->   ?
     e( 69 - 69) =     -2.30434  eV     1   -->   ?
     e( 70 - 70) =     -2.29877  eV     1   -->   ?
     e( 71 - 71) =     -2.29514  eV     1   -->   ?
     e( 72 - 72) =     -2.26676  eV     1   -->   ?
     e( 73 - 73) =     -2.14826  eV     1   -->   ?
     e( 74 - 74) =     -2.14585  eV     1   -->   ?
     e( 75 - 75) =     -1.53696  eV     1   -->   ?
     e( 76 - 77) =     -1.19001  eV     2   -->   ?
     e( 78 - 78) =     -1.09272  eV     1   -->   ?
     e( 79 - 79) =      0.17897  eV     1   -->   ?
     e( 80 - 80) =      0.17916  eV     1   -->   ?
     e( 81 - 81) =      0.97942  eV     1   -->   ?
     e( 82 - 82) =      0.97961  eV     1   -->   ?
     e( 83 - 83) =      1.33490  eV     1   -->   ?
     e( 84 - 84) =      1.36754  eV     1   -->   ?
     e( 85 - 85) =      1.37638  eV     1   -->   ?
     e( 86 - 86) =      1.38270  eV     1   -->   ?
     e( 87 - 87) =      1.42410  eV     1   -->   ?
     e( 88 - 88) =      1.42684  eV     1   -->   ?
     e( 89 - 89) =      1.55817  eV     1   -->   ?
     e( 90 - 90) =      1.56071  eV     1   -->   ?
     e( 91 - 91) =      1.59894  eV     1   -->   ?
     e( 92 - 92) =      1.65054  eV     1   -->   ?
     e( 93 - 93) =      1.84805  eV     1   -->   ?
     e( 94 - 94) =      1.84856  eV     1   -->   ?
     e( 95 - 95) =      2.01355  eV     1   -->   ?
     e( 96 - 96) =      2.01404  eV     1   -->   ?
     e( 97 - 97) =      2.22105  eV     1   -->   ?
     e( 98 - 98) =      2.22199  eV     1   -->   ?
     e( 99 - 99) =      2.41701  eV     1   -->   ?
     e(100 -100) =      2.59222  eV     1   -->   ?

 **************************************************************************

 **************************************************************************

                    xk=(   0.02810,  -0.01622,   0.00000  )

     Band symmetry, C_1 (1)     point group:

     e(  1 -  1) =    -15.61825  eV     1   -->   ?
     e(  2 -  2) =    -14.43535  eV     1   -->   ?
     e(  3 -  3) =    -14.30253  eV     1   -->   ?
     e(  4 -  4) =    -14.29450  eV     1   -->   ?
     e(  5 -  5) =    -14.24954  eV     1   -->   ?
     e(  6 -  6) =    -14.19825  eV     1   -->   ?
     e(  7 -  7) =    -14.17112  eV     1   -->   ?
     e(  8 -  8) =    -13.94074  eV     1   -->   ?
     e(  9 -  9) =    -13.67219  eV     1   -->   ?
     e( 10 - 10) =    -13.67128  eV     1   -->   ?
     e( 11 - 11) =    -13.60433  eV     1   -->   ?
     e( 12 - 12) =    -13.56435  eV     1   -->   ?
     e( 13 - 13) =    -13.55096  eV     1   -->   ?
     e( 14 - 14) =    -13.33160  eV     1   -->   ?
     e( 15 - 15) =    -13.25798  eV     1   -->   ?
     e( 16 - 16) =    -13.09035  eV     1   -->   ?
     e( 17 - 17) =    -12.99054  eV     1   -->   ?
     e( 18 - 18) =     -7.06855  eV     1   -->   ?
     e( 19 - 19) =     -6.87485  eV     1   -->   ?
     e( 20 - 20) =     -6.87249  eV     1   -->   ?
     e( 21 - 21) =     -6.81927  eV     1   -->   ?
     e( 22 - 22) =     -6.74677  eV     1   -->   ?
     e( 23 - 23) =     -6.73744  eV     1   -->   ?
     e( 24 - 24) =     -6.62991  eV     1   -->   ?
     e( 25 - 25) =     -6.55570  eV     1   -->   ?
     e( 26 - 26) =     -6.54791  eV     1   -->   ?
     e( 27 - 27) =     -6.01074  eV     1   -->   ?
     e( 28 - 28) =     -6.00968  eV     1   -->   ?
     e( 29 - 29) =     -5.82256  eV     1   -->   ?
     e( 30 - 30) =     -5.69208  eV     1   -->   ?
     e( 31 - 31) =     -5.68432  eV     1   -->   ?
     e( 32 - 32) =     -5.67246  eV     1   -->   ?
     e( 33 - 33) =     -5.64784  eV     1   -->   ?
     e( 34 - 34) =     -5.62104  eV     1   -->   ?
     e( 35 - 35) =     -5.40267  eV     1   -->   ?
     e( 36 - 36) =     -5.40166  eV     1   -->   ?
     e( 37 - 37) =     -5.33054  eV     1   -->   ?
     e( 38 - 38) =     -5.24195  eV     1   -->   ?
     e( 39 - 39) =     -5.24171  eV     1   -->   ?
     e( 40 - 40) =     -5.05587  eV     1   -->   ?
     e( 41 - 41) =     -4.95141  eV     1   -->   ?
     e( 42 - 42) =     -4.95002  eV     1   -->   ?
     e( 43 - 43) =     -4.85433  eV     1   -->   ?
     e( 44 - 44) =     -4.44606  eV     1   -->   ?
     e( 45 - 45) =     -4.36317  eV     1   -->   ?
     e( 46 - 46) =     -4.35860  eV     1   -->   ?
     e( 47 - 47) =     -4.03059  eV     1   -->   ?
     e( 48 - 48) =     -3.95227  eV     1   -->   ?
     e( 49 - 49) =     -3.94951  eV     1   -->   ?
     e( 50 - 50) =     -3.93677  eV     1   -->   ?
     e( 51 - 51) =     -3.76912  eV     1   -->   ?
     e( 52 - 52) =     -3.76426  eV     1   -->   ?
     e( 53 - 53) =     -3.47868  eV     1   -->   ?
     e( 54 - 54) =     -3.38885  eV     1   -->   ?
     e( 55 - 55) =     -3.31720  eV     1   -->   ?
     e( 56 - 56) =     -3.30584  eV     1   -->   ?
     e( 57 - 57) =     -3.15374  eV     1   -->   ?
     e( 58 - 58) =     -2.98359  eV     1   -->   ?
     e( 59 - 59) =     -2.96100  eV     1   -->   ?
     e( 60 - 60) =     -2.95883  eV     1   -->   ?
     e( 61 - 61) =     -2.83406  eV     1   -->   ?
     e( 62 - 62) =     -2.83034  eV     1   -->   ?
     e( 63 - 63) =     -2.49489  eV     1   -->   ?
     e( 64 - 64) =     -2.49201  eV     1   -->   ?
     e( 65 - 65) =     -2.46122  eV     1   -->   ?
     e( 66 - 66) =     -2.43214  eV     1   -->   ?
     e( 67 - 67) =     -2.39351  eV     1   -->   ?
     e( 68 - 68) =     -2.35626  eV     1   -->   ?
     e( 69 - 69) =     -2.30417  eV     1   -->   ?
     e( 70 - 70) =     -2.30330  eV     1   -->   ?
     e( 71 - 71) =     -2.29007  eV     1   -->   ?
     e( 72 - 72) =     -2.26255  eV     1   -->   ?
     e( 73 - 73) =     -2.14528  eV     1   -->   ?
     e( 74 - 74) =     -2.13677  eV     1   -->   ?
     e( 75 - 75) =     -1.53667  eV     1   -->   ?
     e( 76 - 77) =     -1.19212  eV     2   -->   ?
     e( 78 - 78) =     -1.09355  eV     1   -->   ?
     e( 79 - 80) =      0.17977  eV     2   -->   ?
     e( 81 - 81) =      0.98175  eV     1   -->   ?
     e( 82 - 82) =      0.98211  eV     1   -->   ?
     e( 83 - 83) =      1.32178  eV     1   -->   ?
     e( 84 - 84) =      1.35568  eV     1   -->   ?
     e( 85 - 85) =      1.38135  eV     1   -->   ?
     e( 86 - 86) =      1.38208  eV     1   -->   ?
     e( 87 - 87) =      1.42892  eV     1   -->   ?
     e( 88 - 88) =      1.43726  eV     1   -->   ?
     e( 89 - 89) =      1.55433  eV     1   -->   ?
     e( 90 - 90) =      1.56204  eV     1   -->   ?
     e( 91 - 91) =      1.60855  eV     1   -->   ?
     e( 92 - 92) =      1.65335  eV     1   -->   ?
     e( 93 - 93) =      1.84829  eV     1   -->   ?
     e( 94 - 94) =      1.84989  eV     1   -->   ?
     e( 95 - 95) =      2.01381  eV     1   -->   ?
     e( 96 - 96) =      2.01568  eV     1   -->   ?
     e( 97 - 97) =      2.21849  eV     1   -->   ?
     e( 98 - 98) =      2.22206  eV     1   -->   ?
     e( 99 - 99) =      2.41205  eV     1   -->   ?
     e(100 -100) =      2.58791  eV     1   -->   ?

 **************************************************************************

 **************************************************************************

                    xk=(   0.04214,  -0.02433,   0.00000  )

     Band symmetry, C_1 (1)     point group:

     e(  1 -  1) =    -15.61662  eV     1   -->   ?
     e(  2 -  2) =    -14.43532  eV     1   -->   ?
     e(  3 -  3) =    -14.32297  eV     1   -->   ?
     e(  4 -  4) =    -14.30445  eV     1   -->   ?
     e(  5 -  5) =    -14.25669  eV     1   -->   ?
     e(  6 -  6) =    -14.18684  eV     1   -->   ?
     e(  7 -  7) =    -14.14732  eV     1   -->   ?
     e(  8 -  8) =    -13.93661  eV     1   -->   ?
     e(  9 -  9) =    -13.67683  eV     1   -->   ?
     e( 10 - 10) =    -13.67426  eV     1   -->   ?
     e( 11 - 11) =    -13.61250  eV     1   -->   ?
     e( 12 - 12) =    -13.56043  eV     1   -->   ?
     e( 13 - 13) =    -13.53834  eV     1   -->   ?
     e( 14 - 14) =    -13.33172  eV     1   -->   ?
     e( 15 - 15) =    -13.25944  eV     1   -->   ?
     e( 16 - 16) =    -13.09128  eV     1   -->   ?
     e( 17 - 17) =    -12.99159  eV     1   -->   ?
     e( 18 - 18) =     -7.06684  eV     1   -->   ?
     e( 19 - 19) =     -6.87696  eV     1   -->   ?
     e( 20 - 20) =     -6.87103  eV     1   -->   ?
     e( 21 - 21) =     -6.83176  eV     1   -->   ?
     e( 22 - 22) =     -6.74911  eV     1   -->   ?
     e( 23 - 23) =     -6.73211  eV     1   -->   ?
     e( 24 - 24) =     -6.63155  eV     1   -->   ?
     e( 25 - 25) =     -6.55286  eV     1   -->   ?
     e( 26 - 26) =     -6.53732  eV     1   -->   ?
     e( 27 - 27) =     -6.02946  eV     1   -->   ?
     e( 28 - 28) =     -6.02723  eV     1   -->   ?
     e( 29 - 29) =     -5.83586  eV     1   -->   ?
     e( 30 - 30) =     -5.70627  eV     1   -->   ?
     e( 31 - 31) =     -5.67890  eV     1   -->   ?
     e( 32 - 32) =     -5.65100  eV     1   -->   ?
     e( 33 - 33) =     -5.63929  eV     1   -->   ?
     e( 34 - 34) =     -5.60106  eV     1   -->   ?
     e( 35 - 35) =     -5.39735  eV     1   -->   ?
     e( 36 - 36) =     -5.39501  eV     1   -->   ?
     e( 37 - 37) =     -5.32949  eV     1   -->   ?
     e( 38 - 38) =     -5.24164  eV     1   -->   ?
     e( 39 - 39) =     -5.24126  eV     1   -->   ?
     e( 40 - 40) =     -5.05693  eV     1   -->   ?
     e( 41 - 41) =     -4.94981  eV     1   -->   ?
     e( 42 - 42) =     -4.94665  eV     1   -->   ?
     e( 43 - 43) =     -4.85139  eV     1   -->   ?
     e( 44 - 44) =     -4.44936  eV     1   -->   ?
     e( 45 - 45) =     -4.36607  eV     1   -->   ?
     e( 46 - 46) =     -4.35616  eV     1   -->   ?
     e( 47 - 47) =     -4.04218  eV     1   -->   ?
     e( 48 - 48) =     -3.95813  eV     1   -->   ?
     e( 49 - 49) =     -3.95357  eV     1   -->   ?
     e( 50 - 50) =     -3.92951  eV     1   -->   ?
     e( 51 - 51) =     -3.77356  eV     1   -->   ?
     e( 52 - 52) =     -3.76281  eV     1   -->   ?
     e( 53 - 53) =     -3.47866  eV     1   -->   ?
     e( 54 - 54) =     -3.39067  eV     1   -->   ?
     e( 55 - 55) =     -3.32603  eV     1   -->   ?
     e( 56 - 56) =     -3.30147  eV     1   -->   ?
     e( 57 - 57) =     -3.14915  eV     1   -->   ?
     e( 58 - 58) =     -2.98850  eV     1   -->   ?
     e( 59 - 59) =     -2.95816  eV     1   -->   ?
     e( 60 - 60) =     -2.95461  eV     1   -->   ?
     e( 61 - 61) =     -2.83043  eV     1   -->   ?
     e( 62 - 62) =     -2.82289  eV     1   -->   ?
     e( 63 - 63) =     -2.50653  eV     1   -->   ?
     e( 64 - 64) =     -2.50016  eV     1   -->   ?
     e( 65 - 65) =     -2.47780  eV     1   -->   ?
     e( 66 - 66) =     -2.44650  eV     1   -->   ?
     e( 67 - 67) =     -2.38781  eV     1   -->   ?
     e( 68 - 68) =     -2.34169  eV     1   -->   ?
     e( 69 - 69) =     -2.31221  eV     1   -->   ?
     e( 70 - 70) =     -2.29939  eV     1   -->   ?
     e( 71 - 71) =     -2.28296  eV     1   -->   ?
     e( 72 - 72) =     -2.25404  eV     1   -->   ?
     e( 73 - 73) =     -2.14039  eV     1   -->   ?
     e( 74 - 74) =     -2.12368  eV     1   -->   ?
     e( 75 - 75) =     -1.53620  eV     1   -->   ?
     e( 76 - 76) =     -1.19563  eV     1   -->   ?
     e( 77 - 77) =     -1.19552  eV     1   -->   ?
     e( 78 - 78) =     -1.09493  eV     1   -->   ?
     e( 79 - 79) =      0.18094  eV     1   -->   ?
     e( 80 - 80) =      0.18110  eV     1   -->   ?
     e( 81 - 81) =      0.98555  eV     1   -->   ?
     e( 82 - 82) =      0.98624  eV     1   -->   ?
     e( 83 - 83) =      1.30602  eV     1   -->   ?
     e( 84 - 84) =      1.34167  eV     1   -->   ?
     e( 85 - 85) =      1.38002  eV     1   -->   ?
     e( 86 - 86) =      1.38468  eV     1   -->   ?
     e( 87 - 87) =      1.43505  eV     1   -->   ?
     e( 88 - 88) =      1.45001  eV     1   -->   ?
     e( 89 - 89) =      1.55229  eV     1   -->   ?
     e( 90 - 90) =      1.56421  eV     1   -->   ?
     e( 91 - 91) =      1.62097  eV     1   -->   ?
     e( 92 - 92) =      1.65796  eV     1   -->   ?
     e( 93 - 93) =      1.84868  eV     1   -->   ?
     e( 94 - 94) =      1.85207  eV     1   -->   ?
     e( 95 - 95) =      2.01424  eV     1   -->   ?
     e( 96 - 96) =      2.01841  eV     1   -->   ?
     e( 97 - 97) =      2.21427  eV     1   -->   ?
     e( 98 - 98) =      2.22218  eV     1   -->   ?
     e( 99 - 99) =      2.40404  eV     1   -->   ?
     e(100 -100) =      2.58088  eV     1   -->   ?

 **************************************************************************

 **************************************************************************

                    xk=(   0.05619,  -0.03244,   0.00000  )

     Band symmetry, C_1 (1)     point group:

     e(  1 -  1) =    -15.61434  eV     1   -->   ?
     e(  2 -  2) =    -14.43558  eV     1   -->   ?
     e(  3 -  3) =    -14.34647  eV     1   -->   ?
     e(  4 -  4) =    -14.31569  eV     1   -->   ?
     e(  5 -  5) =    -14.26187  eV     1   -->   ?
     e(  6 -  6) =    -14.17354  eV     1   -->   ?
     e(  7 -  7) =    -14.12356  eV     1   -->   ?
     e(  8 -  8) =    -13.93098  eV     1   -->   ?
     e(  9 -  9) =    -13.68356  eV     1   -->   ?
     e( 10 - 10) =    -13.67810  eV     1   -->   ?
     e( 11 - 11) =    -13.61911  eV     1   -->   ?
     e( 12 - 12) =    -13.55527  eV     1   -->   ?
     e( 13 - 13) =    -13.52521  eV     1   -->   ?
     e( 14 - 14) =    -13.33187  eV     1   -->   ?
     e( 15 - 15) =    -13.26147  eV     1   -->   ?
     e( 16 - 16) =    -13.09257  eV     1   -->   ?
     e( 17 - 17) =    -12.99306  eV     1   -->   ?
     e( 18 - 18) =     -7.06445  eV     1   -->   ?
     e( 19 - 19) =     -6.88165  eV     1   -->   ?
     e( 20 - 20) =     -6.86904  eV     1   -->   ?
     e( 21 - 21) =     -6.84409  eV     1   -->   ?
     e( 22 - 22) =     -6.75215  eV     1   -->   ?
     e( 23 - 23) =     -6.72837  eV     1   -->   ?
     e( 24 - 24) =     -6.63121  eV     1   -->   ?
     e( 25 - 25) =     -6.54907  eV     1   -->   ?
     e( 26 - 26) =     -6.52485  eV     1   -->   ?
     e( 27 - 27) =     -6.05286  eV     1   -->   ?
     e( 28 - 28) =     -6.04897  eV     1   -->   ?
     e( 29 - 29) =     -5.85142  eV     1   -->   ?
     e( 30 - 30) =     -5.71983  eV     1   -->   ?
     e( 31 - 31) =     -5.67913  eV     1   -->   ?
     e( 32 - 32) =     -5.62699  eV     1   -->   ?
     e( 33 - 33) =     -5.62218  eV     1   -->   ?
     e( 34 - 34) =     -5.57900  eV     1   -->   ?
     e( 35 - 35) =     -5.39011  eV     1   -->   ?
     e( 36 - 36) =     -5.38625  eV     1   -->   ?
     e( 37 - 37) =     -5.32788  eV     1   -->   ?
     e( 38 - 38) =     -5.24113  eV     1   -->   ?
     e( 39 - 39) =     -5.24061  eV     1   -->   ?
     e( 40 - 40) =     -5.05832  eV     1   -->   ?
     e( 41 - 41) =     -4.94766  eV     1   -->   ?
     e( 42 - 42) =     -4.94190  eV     1   -->   ?
     e( 43 - 43) =     -4.84713  eV     1   -->   ?
     e( 44 - 44) =     -4.45361  eV     1   -->   ?
     e( 45 - 45) =     -4.37005  eV     1   -->   ?
     e( 46 - 46) =     -4.35308  eV     1   -->   ?
     e( 47 - 47) =     -4.05609  eV     1   -->   ?
     e( 48 - 48) =     -3.96615  eV     1   -->   ?
     e( 49 - 49) =     -3.95931  eV     1   -->   ?
     e( 50 - 50) =     -3.92156  eV     1   -->   ?
     e( 51 - 51) =     -3.77975  eV     1   -->   ?
     e( 52 - 52) =     -3.76066  eV     1   -->   ?
     e( 53 - 53) =     -3.47873  eV     1   -->   ?
     e( 54 - 54) =     -3.39278  eV     1   -->   ?
     e( 55 - 55) =     -3.33769  eV     1   -->   ?
     e( 56 - 56) =     -3.29574  eV     1   -->   ?
     e( 57 - 57) =     -3.14346  eV     1   -->   ?
     e( 58 - 58) =     -2.99491  eV     1   -->   ?
     e( 59 - 59) =     -2.95357  eV     1   -->   ?
     e( 60 - 60) =     -2.94907  eV     1   -->   ?
     e( 61 - 61) =     -2.82529  eV     1   -->   ?
     e( 62 - 62) =     -2.81378  eV     1   -->   ?
     e( 63 - 63) =     -2.52333  eV     1   -->   ?
     e( 64 - 64) =     -2.51265  eV     1   -->   ?
     e( 65 - 65) =     -2.49369  eV     1   -->   ?
     e( 66 - 66) =     -2.45794  eV     1   -->   ?
     e( 67 - 67) =     -2.38805  eV     1   -->   ?
     e( 68 - 68) =     -2.33004  eV     1   -->   ?
     e( 69 - 69) =     -2.31903  eV     1   -->   ?
     e( 70 - 70) =     -2.29152  eV     1   -->   ?
     e( 71 - 71) =     -2.27403  eV     1   -->   ?
     e( 72 - 72) =     -2.24223  eV     1   -->   ?
     e( 73 - 73) =     -2.13369  eV     1   -->   ?
     e( 74 - 74) =     -2.10818  eV     1   -->   ?
     e( 75 - 75) =     -1.53556  eV     1   -->   ?
     e( 76 - 76) =     -1.20049  eV     1   -->   ?
     e( 77 - 77) =     -1.20031  eV     1   -->   ?
     e( 78 - 78) =     -1.09685  eV     1   -->   ?
     e( 79 - 79) =      0.18249  eV     1   -->   ?
     e( 80 - 80) =      0.18291  eV     1   -->   ?
     e( 81 - 81) =      0.99079  eV     1   -->   ?
     e( 82 - 82) =      0.99193  eV     1   -->   ?
     e( 83 - 83) =      1.28921  eV     1   -->   ?
     e( 84 - 84) =      1.32690  eV     1   -->   ?
     e( 85 - 85) =      1.37698  eV     1   -->   ?
     e( 86 - 86) =      1.38629  eV     1   -->   ?
     e( 87 - 87) =      1.44014  eV     1   -->   ?
     e( 88 - 88) =      1.46342  eV     1   -->   ?
     e( 89 - 89) =      1.55419  eV     1   -->   ?
     e( 90 - 90) =      1.56718  eV     1   -->   ?
     e( 91 - 91) =      1.63493  eV     1   -->   ?
     e( 92 - 92) =      1.66430  eV     1   -->   ?
     e( 93 - 93) =      1.84922  eV     1   -->   ?
     e( 94 - 94) =      1.85507  eV     1   -->   ?
     e( 95 - 95) =      2.01482  eV     1   -->   ?
     e( 96 - 96) =      2.02221  eV     1   -->   ?
     e( 97 - 97) =      2.20844  eV     1   -->   ?
     e( 98 - 98) =      2.22236  eV     1   -->   ?
     e( 99 - 99) =      2.39333  eV     1   -->   ?
     e(100 -100) =      2.57131  eV     1   -->   ?

 **************************************************************************

 **************************************************************************

                    xk=(   0.07024,  -0.04055,   0.00000  )

     Band symmetry, C_1 (1)     point group:

     e(  1 -  1) =    -15.61140  eV     1   -->   ?
     e(  2 -  2) =    -14.43676  eV     1   -->   ?
     e(  3 -  3) =    -14.37051  eV     1   -->   ?
     e(  4 -  4) =    -14.32752  eV     1   -->   ?
     e(  5 -  5) =    -14.26654  eV     1   -->   ?
     e(  6 -  6) =    -14.15909  eV     1   -->   ?
     e(  7 -  7) =    -14.10018  eV     1   -->   ?
     e(  8 -  8) =    -13.92400  eV     1   -->   ?
     e(  9 -  9) =    -13.69220  eV     1   -->   ?
     e( 10 - 10) =    -13.68257  eV     1   -->   ?
     e( 11 - 11) =    -13.62395  eV     1   -->   ?
     e( 12 - 12) =    -13.54910  eV     1   -->   ?
     e( 13 - 13) =    -13.51190  eV     1   -->   ?
     e( 14 - 14) =    -13.33208  eV     1   -->   ?
     e( 15 - 15) =    -13.26409  eV     1   -->   ?
     e( 16 - 16) =    -13.09423  eV     1   -->   ?
     e( 17 - 17) =    -12.99495  eV     1   -->   ?
     e( 18 - 18) =     -7.06141  eV     1   -->   ?
     e( 19 - 19) =     -6.89114  eV     1   -->   ?
     e( 20 - 20) =     -6.86660  eV     1   -->   ?
     e( 21 - 21) =     -6.85323  eV     1   -->   ?
     e( 22 - 22) =     -6.75570  eV     1   -->   ?
     e( 23 - 23) =     -6.72686  eV     1   -->   ?
     e( 24 - 24) =     -6.62823  eV     1   -->   ?
     e( 25 - 25) =     -6.54451  eV     1   -->   ?
     e( 26 - 26) =     -6.51140  eV     1   -->   ?
     e( 27 - 27) =     -6.07940  eV     1   -->   ?
     e( 28 - 28) =     -6.07343  eV     1   -->   ?
     e( 29 - 29) =     -5.86857  eV     1   -->   ?
     e( 30 - 30) =     -5.73277  eV     1   -->   ?
     e( 31 - 31) =     -5.68340  eV     1   -->   ?
     e( 32 - 32) =     -5.60306  eV     1   -->   ?
     e( 33 - 33) =     -5.59956  eV     1   -->   ?
     e( 34 - 34) =     -5.55423  eV     1   -->   ?
     e( 35 - 35) =     -5.38114  eV     1   -->   ?
     e( 36 - 36) =     -5.37598  eV     1   -->   ?
     e( 37 - 37) =     -5.32547  eV     1   -->   ?
     e( 38 - 38) =     -5.24031  eV     1   -->   ?
     e( 39 - 39) =     -5.23974  eV     1   -->   ?
     e( 40 - 40) =     -5.05995  eV     1   -->   ?
     e( 41 - 41) =     -4.94503  eV     1   -->   ?
     e( 42 - 42) =     -4.93573  eV     1   -->   ?
     e( 43 - 43) =     -4.84140  eV     1   -->   ?
     e( 44 - 44) =     -4.45856  eV     1   -->   ?
     e( 45 - 45) =     -4.37506  eV     1   -->   ?
     e( 46 - 46) =     -4.34957  eV     1   -->   ?
     e( 47 - 47) =     -4.07163  eV     1   -->   ?
     e( 48 - 48) =     -3.97617  eV     1   -->   ?
     e( 49 - 49) =     -3.96661  eV     1   -->   ?
     e( 50 - 50) =     -3.91377  eV     1   -->   ?
     e( 51 - 51) =     -3.78765  eV     1   -->   ?
     e( 52 - 52) =     -3.75766  eV     1   -->   ?
     e( 53 - 53) =     -3.47896  eV     1   -->   ?
     e( 54 - 54) =     -3.39492  eV     1   -->   ?
     e( 55 - 55) =     -3.35172  eV     1   -->   ?
     e( 56 - 56) =     -3.28887  eV     1   -->   ?
     e( 57 - 57) =     -3.13716  eV     1   -->   ?
     e( 58 - 58) =     -3.00202  eV     1   -->   ?
     e( 59 - 59) =     -2.94750  eV     1   -->   ?
     e( 60 - 60) =     -2.94257  eV     1   -->   ?
     e( 61 - 61) =     -2.81859  eV     1   -->   ?
     e( 62 - 62) =     -2.80379  eV     1   -->   ?
     e( 63 - 63) =     -2.54418  eV     1   -->   ?
     e( 64 - 64) =     -2.52896  eV     1   -->   ?
     e( 65 - 65) =     -2.50895  eV     1   -->   ?
     e( 66 - 66) =     -2.46633  eV     1   -->   ?
     e( 67 - 67) =     -2.39623  eV     1   -->   ?
     e( 68 - 69) =     -2.32133  eV     2   -->   ?
     e( 70 - 70) =     -2.28004  eV     1   -->   ?
     e( 71 - 71) =     -2.26326  eV     1   -->   ?
     e( 72 - 72) =     -2.22837  eV     1   -->   ?
     e( 73 - 73) =     -2.12533  eV     1   -->   ?
     e( 74 - 74) =     -2.09133  eV     1   -->   ?
     e( 75 - 75) =     -1.53475  eV     1   -->   ?
     e( 76 - 76) =     -1.20665  eV     1   -->   ?
     e( 77 - 77) =     -1.20638  eV     1   -->   ?
     e( 78 - 78) =     -1.09930  eV     1   -->   ?
     e( 79 - 79) =      0.18444  eV     1   -->   ?
     e( 80 - 80) =      0.18520  eV     1   -->   ?
     e( 81 - 81) =      0.99736  eV     1   -->   ?
     e( 82 - 82) =      0.99907  eV     1   -->   ?
     e( 83 - 83) =      1.27203  eV     1   -->   ?
     e( 84 - 84) =      1.31195  eV     1   -->   ?
     e( 85 - 85) =      1.37325  eV     1   -->   ?
     e( 86 - 86) =      1.38675  eV     1   -->   ?
     e( 87 - 87) =      1.44257  eV     1   -->   ?
     e( 88 - 88) =      1.47685  eV     1   -->   ?
     e( 89 - 89) =      1.56097  eV     1   -->   ?
     e( 90 - 90) =      1.57092  eV     1   -->   ?
     e( 91 - 91) =      1.64987  eV     1   -->   ?
     e( 92 - 92) =      1.67224  eV     1   -->   ?
     e( 93 - 93) =      1.84990  eV     1   -->   ?
     e( 94 - 94) =      1.85883  eV     1   -->   ?
     e( 95 - 95) =      2.01555  eV     1   -->   ?
     e( 96 - 96) =      2.02707  eV     1   -->   ?
     e( 97 - 97) =      2.20110  eV     1   -->   ?
     e( 98 - 98) =      2.22261  eV     1   -->   ?
     e( 99 - 99) =      2.38029  eV     1   -->   ?
     e(100 -100) =      2.55942  eV     1   -->   ?

 **************************************************************************

 **************************************************************************

                    xk=(   0.08429,  -0.04866,   0.00000  )

     Band symmetry, C_1 (1)     point group:

     e(  1 -  1) =    -15.60781  eV     1   -->   ?
     e(  2 -  2) =    -14.44071  eV     1   -->   ?
     e(  3 -  3) =    -14.39249  eV     1   -->   ?
     e(  4 -  4) =    -14.33956  eV     1   -->   ?
     e(  5 -  5) =    -14.27120  eV     1   -->   ?
     e(  6 -  6) =    -14.14385  eV     1   -->   ?
     e(  7 -  7) =    -14.07738  eV     1   -->   ?
     e(  8 -  8) =    -13.91585  eV     1   -->   ?
     e(  9 -  9) =    -13.70227  eV     1   -->   ?
     e( 10 - 10) =    -13.68749  eV     1   -->   ?
     e( 11 - 11) =    -13.62726  eV     1   -->   ?
     e( 12 - 12) =    -13.54211  eV     1   -->   ?
     e( 13 - 13) =    -13.49857  eV     1   -->   ?
     e( 14 - 14) =    -13.33232  eV     1   -->   ?
     e( 15 - 15) =    -13.26728  eV     1   -->   ?
     e( 16 - 16) =    -13.09624  eV     1   -->   ?
     e( 17 - 17) =    -12.99725  eV     1   -->   ?
     e( 18 - 18) =     -7.05773  eV     1   -->   ?
     e( 19 - 19) =     -6.90589  eV     1   -->   ?
     e( 20 - 20) =     -6.86382  eV     1   -->   ?
     e( 21 - 21) =     -6.85826  eV     1   -->   ?
     e( 22 - 22) =     -6.75951  eV     1   -->   ?
     e( 23 - 23) =     -6.72734  eV     1   -->   ?
     e( 24 - 24) =     -6.62271  eV     1   -->   ?
     e( 25 - 25) =     -6.53934  eV     1   -->   ?
     e( 26 - 26) =     -6.49757  eV     1   -->   ?
     e( 27 - 27) =     -6.10791  eV     1   -->   ?
     e( 28 - 28) =     -6.09950  eV     1   -->   ?
     e( 29 - 29) =     -5.88692  eV     1   -->   ?
     e( 30 - 30) =     -5.74520  eV     1   -->   ?
     e( 31 - 31) =     -5.68989  eV     1   -->   ?
     e( 32 - 32) =     -5.58072  eV     1   -->   ?
     e( 33 - 33) =     -5.57423  eV     1   -->   ?
     e( 34 - 34) =     -5.52649  eV     1   -->   ?
     e( 35 - 35) =     -5.37064  eV     1   -->   ?
     e( 36 - 36) =     -5.36509  eV     1   -->   ?
     e( 37 - 37) =     -5.32179  eV     1   -->   ?
     e( 38 - 38) =     -5.23907  eV     1   -->   ?
     e( 39 - 39) =     -5.23865  eV     1   -->   ?
     e( 40 - 40) =     -5.06174  eV     1   -->   ?
     e( 41 - 41) =     -4.94199  eV     1   -->   ?
     e( 42 - 42) =     -4.92807  eV     1   -->   ?
     e( 43 - 43) =     -4.83404  eV     1   -->   ?
     e( 44 - 44) =     -4.46398  eV     1   -->   ?
     e( 45 - 45) =     -4.38103  eV     1   -->   ?
     e( 46 - 46) =     -4.34582  eV     1   -->   ?
     e( 47 - 47) =     -4.08834  eV     1   -->   ?
     e( 48 - 48) =     -3.98799  eV     1   -->   ?
     e( 49 - 49) =     -3.97536  eV     1   -->   ?
     e( 50 - 50) =     -3.90669  eV     1   -->   ?
     e( 51 - 51) =     -3.79721  eV     1   -->   ?
     e( 52 - 52) =     -3.75364  eV     1   -->   ?
     e( 53 - 53) =     -3.47947  eV     1   -->   ?
     e( 54 - 54) =     -3.39684  eV     1   -->   ?
     e( 55 - 55) =     -3.36772  eV     1   -->   ?
     e( 56 - 56) =     -3.28105  eV     1   -->   ?
     e( 57 - 57) =     -3.13074  eV     1   -->   ?
     e( 58 - 58) =     -3.00914  eV     1   -->   ?
     e( 59 - 59) =     -2.94020  eV     1   -->   ?
     e( 60 - 60) =     -2.93548  eV     1   -->   ?
     e( 61 - 61) =     -2.81033  eV     1   -->   ?
     e( 62 - 62) =     -2.79362  eV     1   -->   ?
     e( 63 - 63) =     -2.56744  eV     1   -->   ?
     e( 64 - 64) =     -2.54779  eV     1   -->   ?
     e( 65 - 65) =     -2.52446  eV     1   -->   ?
     e( 66 - 66) =     -2.47243  eV     1   -->   ?
     e( 67 - 67) =     -2.41133  eV     1   -->   ?
     e( 68 - 68) =     -2.31907  eV     1   -->   ?
     e( 69 - 69) =     -2.31404  eV     1   -->   ?
     e( 70 - 70) =     -2.26668  eV     1   -->   ?
     e( 71 - 71) =     -2.25071  eV     1   -->   ?
     e( 72 - 72) =     -2.21338  eV     1   -->   ?
     e( 73 - 73) =     -2.11544  eV     1   -->   ?
     e( 74 - 74) =     -2.07378  eV     1   -->   ?
     e( 75 - 75) =     -1.53381  eV     1   -->   ?
     e( 76 - 76) =     -1.21407  eV     1   -->   ?
     e( 77 - 77) =     -1.21366  eV     1   -->   ?
     e( 78 - 78) =     -1.10225  eV     1   -->   ?
     e( 79 - 79) =      0.18678  eV     1   -->   ?
     e( 80 - 80) =      0.18791  eV     1   -->   ?
     e( 81 - 81) =      1.00515  eV     1   -->   ?
     e( 82 - 82) =      1.00755  eV     1   -->   ?
     e( 83 - 83) =      1.25482  eV     1   -->   ?
     e( 84 - 84) =      1.29715  eV     1   -->   ?
     e( 85 - 85) =      1.36908  eV     1   -->   ?
     e( 86 - 86) =      1.38651  eV     1   -->   ?
     e( 87 - 87) =      1.44212  eV     1   -->   ?
     e( 88 - 88) =      1.48998  eV     1   -->   ?
     e( 89 - 89) =      1.57238  eV     1   -->   ?
     e( 90 - 90) =      1.57536  eV     1   -->   ?
     e( 91 - 91) =      1.66550  eV     1   -->   ?
     e( 92 - 92) =      1.68165  eV     1   -->   ?
     e( 93 - 93) =      1.85070  eV     1   -->   ?
     e( 94 - 94) =      1.86329  eV     1   -->   ?
     e( 95 - 95) =      2.01637  eV     1   -->   ?
     e( 96 - 96) =      2.03297  eV     1   -->   ?
     e( 97 - 97) =      2.19238  eV     1   -->   ?
     e( 98 - 98) =      2.22292  eV     1   -->   ?
     e( 99 - 99) =      2.36532  eV     1   -->   ?
     e(100 -100) =      2.54546  eV     1   -->   ?

 **************************************************************************

 **************************************************************************

                    xk=(   0.09833,  -0.05677,   0.00000  )

     Band symmetry, C_1 (1)     point group:

     e(  1 -  1) =    -15.60357  eV     1   -->   ?
     e(  2 -  2) =    -14.45175  eV     1   -->   ?
     e(  3 -  3) =    -14.40772  eV     1   -->   ?
     e(  4 -  4) =    -14.35159  eV     1   -->   ?
     e(  5 -  5) =    -14.27599  eV     1   -->   ?
     e(  6 -  6) =    -14.12806  eV     1   -->   ?
     e(  7 -  7) =    -14.05528  eV     1   -->   ?
     e(  8 -  8) =    -13.90679  eV     1   -->   ?
     e(  9 -  9) =    -13.71316  eV     1   -->   ?
     e( 10 - 10) =    -13.69268  eV     1   -->   ?
     e( 11 - 11) =    -13.62939  eV     1   -->   ?
     e( 12 - 12) =    -13.53446  eV     1   -->   ?
     e( 13 - 13) =    -13.48535  eV     1   -->   ?
     e( 14 - 14) =    -13.33260  eV     1   -->   ?
     e( 15 - 15) =    -13.27104  eV     1   -->   ?
     e( 16 - 16) =    -13.09858  eV     1   -->   ?
     e( 17 - 17) =    -12.99995  eV     1   -->   ?
     e( 18 - 18) =     -7.05345  eV     1   -->   ?
     e( 19 - 19) =     -6.92396  eV     1   -->   ?
     e( 20 - 21) =     -6.86083  eV     2   -->   ?
     e( 22 - 22) =     -6.76331  eV     1   -->   ?
     e( 23 - 23) =     -6.72915  eV     1   -->   ?
     e( 24 - 24) =     -6.61522  eV     1   -->   ?
     e( 25 - 25) =     -6.53374  eV     1   -->   ?
     e( 26 - 26) =     -6.48381  eV     1   -->   ?
     e( 27 - 27) =     -6.13753  eV     1   -->   ?
     e( 28 - 28) =     -6.12639  eV     1   -->   ?
     e( 29 - 29) =     -5.90615  eV     1   -->   ?
     e( 30 - 30) =     -5.75728  eV     1   -->   ?
     e( 31 - 31) =     -5.69780  eV     1   -->   ?
     e( 32 - 32) =     -5.56029  eV     1   -->   ?
     e( 33 - 33) =     -5.54774  eV     1   -->   ?
     e( 34 - 34) =     -5.49639  eV     1   -->   ?
     e( 35 - 35) =     -5.35881  eV     1   -->   ?
     e( 36 - 36) =     -5.35484  eV     1   -->   ?
     e( 37 - 37) =     -5.31599  eV     1   -->   ?
     e( 38 - 39) =     -5.23729  eV     2   -->   ?
     e( 40 - 40) =     -5.06355  eV     1   -->   ?
     e( 41 - 41) =     -4.93864  eV     1   -->   ?
     e( 42 - 42) =     -4.91888  eV     1   -->   ?
     e( 43 - 43) =     -4.82487  eV     1   -->   ?
     e( 44 - 44) =     -4.46967  eV     1   -->   ?
     e( 45 - 45) =     -4.38787  eV     1   -->   ?
     e( 46 - 46) =     -4.34197  eV     1   -->   ?
     e( 47 - 47) =     -4.10594  eV     1   -->   ?
     e( 48 - 48) =     -4.00139  eV     1   -->   ?
     e( 49 - 49) =     -3.98546  eV     1   -->   ?
     e( 50 - 50) =     -3.90065  eV     1   -->   ?
     e( 51 - 51) =     -3.80839  eV     1   -->   ?
     e( 52 - 52) =     -3.74842  eV     1   -->   ?
     e( 53 - 53) =     -3.48044  eV     1   -->   ?
     e( 54 - 54) =     -3.39837  eV     1   -->   ?
     e( 55 - 55) =     -3.38530  eV     1   -->   ?
     e( 56 - 56) =     -3.27243  eV     1   -->   ?
     e( 57 - 57) =     -3.12466  eV     1   -->   ?
     e( 58 - 58) =     -3.01570  eV     1   -->   ?
     e( 59 - 59) =     -2.93190  eV     1   -->   ?
     e( 60 - 60) =     -2.92822  eV     1   -->   ?
     e( 61 - 61) =     -2.80055  eV     1   -->   ?
     e( 62 - 62) =     -2.78388  eV     1   -->   ?
     e( 63 - 63) =     -2.59201  eV     1   -->   ?
     e( 64 - 64) =     -2.56801  eV     1   -->   ?
     e( 65 - 65) =     -2.54076  eV     1   -->   ?
     e( 66 - 66) =     -2.47684  eV     1   -->   ?
     e( 67 - 67) =     -2.43083  eV     1   -->   ?
     e( 68 - 68) =     -2.31420  eV     1   -->   ?
     e( 69 - 69) =     -2.30690  eV     1   -->   ?
     e( 70 - 70) =     -2.25263  eV     1   -->   ?
     e( 71 - 71) =     -2.23669  eV     1   -->   ?
     e( 72 - 72) =     -2.19790  eV     1   -->   ?
     e( 73 - 73) =     -2.10416  eV     1   -->   ?
     e( 74 - 74) =     -2.05593  eV     1   -->   ?
     e( 75 - 75) =     -1.53276  eV     1   -->   ?
     e( 76 - 76) =     -1.22266  eV     1   -->   ?
     e( 77 - 77) =     -1.22209  eV     1   -->   ?
     e( 78 - 78) =     -1.10570  eV     1   -->   ?
     e( 79 - 79) =      0.18948  eV     1   -->   ?
     e( 80 - 80) =      0.19102  eV     1   -->   ?
     e( 81 - 81) =      1.01401  eV     1   -->   ?
     e( 82 - 82) =      1.01720  eV     1   -->   ?
     e( 83 - 83) =      1.23777  eV     1   -->   ?
     e( 84 - 84) =      1.28274  eV     1   -->   ?
     e( 85 - 85) =      1.36468  eV     1   -->   ?
     e( 86 - 86) =      1.38583  eV     1   -->   ?
     e( 87 - 87) =      1.43957  eV     1   -->   ?
     e( 88 - 88) =      1.50267  eV     1   -->   ?
     e( 89 - 89) =      1.58046  eV     1   -->   ?
     e( 90 - 90) =      1.58736  eV     1   -->   ?
     e( 91 - 91) =      1.68165  eV     1   -->   ?
     e( 92 - 92) =      1.69237  eV     1   -->   ?
     e( 93 - 93) =      1.85163  eV     1   -->   ?
     e( 94 - 94) =      1.86839  eV     1   -->   ?
     e( 95 - 95) =      2.01722  eV     1   -->   ?
     e( 96 - 96) =      2.03987  eV     1   -->   ?
     e( 97 - 97) =      2.18246  eV     1   -->   ?
     e( 98 - 98) =      2.22331  eV     1   -->   ?
     e( 99 - 99) =      2.34877  eV     1   -->   ?
     e(100 -100) =      2.52970  eV     1   -->   ?

 **************************************************************************

 **************************************************************************

                    xk=(   0.11238,  -0.06488,   0.00000  )

     Band symmetry, C_1 (1)     point group:

     e(  1 -  1) =    -15.59868  eV     1   -->   ?
     e(  2 -  2) =    -14.47187  eV     1   -->   ?
     e(  3 -  3) =    -14.41404  eV     1   -->   ?
     e(  4 -  4) =    -14.36349  eV     1   -->   ?
     e(  5 -  5) =    -14.28088  eV     1   -->   ?
     e(  6 -  6) =    -14.11184  eV     1   -->   ?
     e(  7 -  7) =    -14.03395  eV     1   -->   ?
     e(  8 -  8) =    -13.89718  eV     1   -->   ?
     e(  9 -  9) =    -13.72428  eV     1   -->   ?
     e( 10 - 10) =    -13.69804  eV     1   -->   ?
     e( 11 - 11) =    -13.63065  eV     1   -->   ?
     e( 12 - 12) =    -13.52629  eV     1   -->   ?
     e( 13 - 13) =    -13.47229  eV     1   -->   ?
     e( 14 - 14) =    -13.33292  eV     1   -->   ?
     e( 15 - 15) =    -13.27538  eV     1   -->   ?
     e( 16 - 16) =    -13.10127  eV     1   -->   ?
     e( 17 - 17) =    -13.00306  eV     1   -->   ?
     e( 18 - 18) =     -7.04866  eV     1   -->   ?
     e( 19 - 19) =     -6.94366  eV     1   -->   ?
     e( 20 - 20) =     -6.86231  eV     1   -->   ?
     e( 21 - 21) =     -6.85785  eV     1   -->   ?
     e( 22 - 22) =     -6.76680  eV     1   -->   ?
     e( 23 - 23) =     -6.73156  eV     1   -->   ?
     e( 24 - 24) =     -6.60641  eV     1   -->   ?
     e( 25 - 25) =     -6.52790  eV     1   -->   ?
     e( 26 - 26) =     -6.47048  eV     1   -->   ?
     e( 27 - 27) =     -6.16767  eV     1   -->   ?
     e( 28 - 28) =     -6.15351  eV     1   -->   ?
     e( 29 - 29) =     -5.92599  eV     1   -->   ?
     e( 30 - 30) =     -5.76910  eV     1   -->   ?
     e( 31 - 31) =     -5.70675  eV     1   -->   ?
     e( 32 - 32) =     -5.54140  eV     1   -->   ?
     e( 33 - 33) =     -5.52099  eV     1   -->   ?
     e( 34 - 34) =     -5.46504  eV     1   -->   ?
     e( 35 - 35) =     -5.34658  eV     1   -->   ?
     e( 36 - 36) =     -5.34589  eV     1   -->   ?
     e( 37 - 37) =     -5.30710  eV     1   -->   ?
     e( 38 - 38) =     -5.23560  eV     1   -->   ?
     e( 39 - 39) =     -5.23451  eV     1   -->   ?
     e( 40 - 40) =     -5.06526  eV     1   -->   ?
     e( 41 - 41) =     -4.93505  eV     1   -->   ?
     e( 42 - 42) =     -4.90808  eV     1   -->   ?
     e( 43 - 43) =     -4.81371  eV     1   -->   ?
     e( 44 - 44) =     -4.47543  eV     1   -->   ?
     e( 45 - 45) =     -4.39550  eV     1   -->   ?
     e( 46 - 46) =     -4.33814  eV     1   -->   ?
     e( 47 - 47) =     -4.12419  eV     1   -->   ?
     e( 48 - 48) =     -4.01615  eV     1   -->   ?
     e( 49 - 49) =     -3.99684  eV     1   -->   ?
     e( 50 - 50) =     -3.89591  eV     1   -->   ?
     e( 51 - 51) =     -3.82113  eV     1   -->   ?
     e( 52 - 52) =     -3.74183  eV     1   -->   ?
     e( 53 - 53) =     -3.48212  eV     1   -->   ?
     e( 54 - 54) =     -3.40404  eV     1   -->   ?
     e( 55 - 55) =     -3.39938  eV     1   -->   ?
     e( 56 - 56) =     -3.26311  eV     1   -->   ?
     e( 57 - 57) =     -3.11936  eV     1   -->   ?
     e( 58 - 58) =     -3.02127  eV     1   -->   ?
     e( 59 - 59) =     -2.92282  eV     1   -->   ?
     e( 60 - 60) =     -2.92114  eV     1   -->   ?
     e( 61 - 61) =     -2.78944  eV     1   -->   ?
     e( 62 - 62) =     -2.77511  eV     1   -->   ?
     e( 63 - 63) =     -2.61719  eV     1   -->   ?
     e( 64 - 64) =     -2.58888  eV     1   -->   ?
     e( 65 - 65) =     -2.55803  eV     1   -->   ?
     e( 66 - 66) =     -2.47974  eV     1   -->   ?
     e( 67 - 67) =     -2.45288  eV     1   -->   ?
     e( 68 - 68) =     -2.30810  eV     1   -->   ?
     e( 69 - 69) =     -2.29925  eV     1   -->   ?
     e( 70 - 70) =     -2.23820  eV     1   -->   ?
     e( 71 - 71) =     -2.22173  eV     1   -->   ?
     e( 72 - 72) =     -2.18234  eV     1   -->   ?
     e( 73 - 73) =     -2.09163  eV     1   -->   ?
     e( 74 - 74) =     -2.03804  eV     1   -->   ?
     e( 75 - 75) =     -1.53162  eV     1   -->   ?
     e( 76 - 76) =     -1.23236  eV     1   -->   ?
     e( 77 - 77) =     -1.23157  eV     1   -->   ?
     e( 78 - 78) =     -1.10962  eV     1   -->   ?
     e( 79 - 79) =      0.19251  eV     1   -->   ?
     e( 80 - 80) =      0.19447  eV     1   -->   ?
     e( 81 - 81) =      1.02378  eV     1   -->   ?
     e( 82 - 82) =      1.02780  eV     1   -->   ?
     e( 83 - 83) =      1.22104  eV     1   -->   ?
     e( 84 - 84) =      1.26893  eV     1   -->   ?
     e( 85 - 85) =      1.36025  eV     1   -->   ?
     e( 86 - 86) =      1.38490  eV     1   -->   ?
     e( 87 - 87) =      1.43589  eV     1   -->   ?
     e( 88 - 88) =      1.51486  eV     1   -->   ?
     e( 89 - 89) =      1.58617  eV     1   -->   ?
     e( 90 - 90) =      1.60476  eV     1   -->   ?
     e( 91 - 91) =      1.69819  eV     1   -->   ?
     e( 92 - 92) =      1.70422  eV     1   -->   ?
     e( 93 - 93) =      1.85271  eV     1   -->   ?
     e( 94 - 94) =      1.87404  eV     1   -->   ?
     e( 95 - 95) =      2.01793  eV     1   -->   ?
     e( 96 - 96) =      2.04775  eV     1   -->   ?
     e( 97 - 97) =      2.17159  eV     1   -->   ?
     e( 98 - 98) =      2.22377  eV     1   -->   ?
     e( 99 - 99) =      2.33096  eV     1   -->   ?
     e(100 -100) =      2.51242  eV     1   -->   ?

 **************************************************************************

 **************************************************************************

                    xk=(   0.12643,  -0.07299,   0.00000  )

     Band symmetry, C_1 (1)     point group:

     e(  1 -  1) =    -15.59315  eV     1   -->   ?
     e(  2 -  2) =    -14.49686  eV     1   -->   ?
     e(  3 -  3) =    -14.41556  eV     1   -->   ?
     e(  4 -  4) =    -14.37517  eV     1   -->   ?
     e(  5 -  5) =    -14.28580  eV     1   -->   ?
     e(  6 -  6) =    -14.09527  eV     1   -->   ?
     e(  7 -  7) =    -14.01345  eV     1   -->   ?
     e(  8 -  8) =    -13.88750  eV     1   -->   ?
     e(  9 -  9) =    -13.73497  eV     1   -->   ?
     e( 10 - 10) =    -13.70347  eV     1   -->   ?
     e( 11 - 11) =    -13.63129  eV     1   -->   ?
     e( 12 - 12) =    -13.51767  eV     1   -->   ?
     e( 13 - 13) =    -13.45947  eV     1   -->   ?
     e( 14 - 14) =    -13.33326  eV     1   -->   ?
     e( 15 - 15) =    -13.28027  eV     1   -->   ?
     e( 16 - 16) =    -13.10427  eV     1   -->   ?
     e( 17 - 17) =    -13.00657  eV     1   -->   ?
     e( 18 - 18) =     -7.04349  eV     1   -->   ?
     e( 19 - 19) =     -6.96404  eV     1   -->   ?
     e( 20 - 20) =     -6.86341  eV     1   -->   ?
     e( 21 - 21) =     -6.85512  eV     1   -->   ?
     e( 22 - 22) =     -6.76964  eV     1   -->   ?
     e( 23 - 23) =     -6.73400  eV     1   -->   ?
     e( 24 - 24) =     -6.59680  eV     1   -->   ?
     e( 25 - 25) =     -6.52200  eV     1   -->   ?
     e( 26 - 26) =     -6.45789  eV     1   -->   ?
     e( 27 - 27) =     -6.19787  eV     1   -->   ?
     e( 28 - 28) =     -6.18041  eV     1   -->   ?
     e( 29 - 29) =     -5.94621  eV     1   -->   ?
     e( 30 - 30) =     -5.78073  eV     1   -->   ?
     e( 31 - 31) =     -5.71650  eV     1   -->   ?
     e( 32 - 32) =     -5.52366  eV     1   -->   ?
     e( 33 - 33) =     -5.49457  eV     1   -->   ?
     e( 34 - 34) =     -5.43361  eV     1   -->   ?
     e( 35 - 35) =     -5.34072  eV     1   -->   ?
     e( 36 - 36) =     -5.33215  eV     1   -->   ?
     e( 37 - 37) =     -5.29508  eV     1   -->   ?
     e( 38 - 38) =     -5.23353  eV     1   -->   ?
     e( 39 - 39) =     -5.23058  eV     1   -->   ?
     e( 40 - 40) =     -5.06672  eV     1   -->   ?
     e( 41 - 41) =     -4.93128  eV     1   -->   ?
     e( 42 - 42) =     -4.89565  eV     1   -->   ?
     e( 43 - 43) =     -4.80039  eV     1   -->   ?
     e( 44 - 44) =     -4.48110  eV     1   -->   ?
     e( 45 - 45) =     -4.40384  eV     1   -->   ?
     e( 46 - 46) =     -4.33441  eV     1   -->   ?
     e( 47 - 47) =     -4.14290  eV     1   -->   ?
     e( 48 - 48) =     -4.03203  eV     1   -->   ?
     e( 49 - 49) =     -4.00941  eV     1   -->   ?
     e( 50 - 50) =     -3.89260  eV     1   -->   ?
     e( 51 - 51) =     -3.83536  eV     1   -->   ?
     e( 52 - 52) =     -3.73377  eV     1   -->   ?
     e( 53 - 53) =     -3.48499  eV     1   -->   ?
     e( 54 - 54) =     -3.42337  eV     1   -->   ?
     e( 55 - 55) =     -3.39974  eV     1   -->   ?
     e( 56 - 56) =     -3.25320  eV     1   -->   ?
     e( 57 - 57) =     -3.11524  eV     1   -->   ?
     e( 58 - 58) =     -3.02546  eV     1   -->   ?
     e( 59 - 59) =     -2.91456  eV     1   -->   ?
     e( 60 - 60) =     -2.91317  eV     1   -->   ?
     e( 61 - 61) =     -2.77744  eV     1   -->   ?
     e( 62 - 62) =     -2.76788  eV     1   -->   ?
     e( 63 - 63) =     -2.64233  eV     1   -->   ?
     e( 64 - 64) =     -2.60982  eV     1   -->   ?
     e( 65 - 65) =     -2.57633  eV     1   -->   ?
     e( 66 - 66) =     -2.48107  eV     1   -->   ?
     e( 67 - 67) =     -2.47646  eV     1   -->   ?
     e( 68 - 68) =     -2.30143  eV     1   -->   ?
     e( 69 - 69) =     -2.29084  eV     1   -->   ?
     e( 70 - 70) =     -2.22338  eV     1   -->   ?
     e( 71 - 71) =     -2.20630  eV     1   -->   ?
     e( 72 - 72) =     -2.16696  eV     1   -->   ?
     e( 73 - 73) =     -2.07799  eV     1   -->   ?
     e( 74 - 74) =     -2.02029  eV     1   -->   ?
     e( 75 - 75) =     -1.53043  eV     1   -->   ?
     e( 76 - 76) =     -1.24308  eV     1   -->   ?
     e( 77 - 77) =     -1.24201  eV     1   -->   ?
     e( 78 - 78) =     -1.11399  eV     1   -->   ?
     e( 79 - 79) =      0.19584  eV     1   -->   ?
     e( 80 - 80) =      0.19821  eV     1   -->   ?
     e( 81 - 81) =      1.03428  eV     1   -->   ?
     e( 82 - 82) =      1.03911  eV     1   -->   ?
     e( 83 - 83) =      1.20474  eV     1   -->   ?
     e( 84 - 84) =      1.25595  eV     1   -->   ?
     e( 85 - 85) =      1.35598  eV     1   -->   ?
     e( 86 - 86) =      1.38385  eV     1   -->   ?
     e( 87 - 87) =      1.43184  eV     1   -->   ?
     e( 88 - 88) =      1.52653  eV     1   -->   ?
     e( 89 - 89) =      1.59242  eV     1   -->   ?
     e( 90 - 90) =      1.62368  eV     1   -->   ?
     e( 91 - 91) =      1.71502  eV     1   -->   ?
     e( 92 - 92) =      1.71704  eV     1   -->   ?
     e( 93 - 93) =      1.85397  eV     1   -->   ?
     e( 94 - 94) =      1.88016  eV     1   -->   ?
     e( 95 - 95) =      2.01831  eV     1   -->   ?
     e( 96 - 96) =      2.05652  eV     1   -->   ?
     e( 97 - 97) =      2.16009  eV     1   -->   ?
     e( 98 - 98) =      2.22430  eV     1   -->   ?
     e( 99 - 99) =      2.31220  eV     1   -->   ?
     e(100 -100) =      2.49389  eV     1   -->   ?

 **************************************************************************

 **************************************************************************

                    xk=(   0.14048,  -0.08110,   0.00000  )

     Band symmetry, C_1 (1)     point group:

     e(  1 -  1) =    -15.58696  eV     1   -->   ?
     e(  2 -  2) =    -14.52374  eV     1   -->   ?
     e(  3 -  3) =    -14.41525  eV     1   -->   ?
     e(  4 -  4) =    -14.38659  eV     1   -->   ?
     e(  5 -  5) =    -14.29065  eV     1   -->   ?
     e(  6 -  6) =    -14.07840  eV     1   -->   ?
     e(  7 -  7) =    -13.99378  eV     1   -->   ?
     e(  8 -  8) =    -13.87848  eV     1   -->   ?
     e(  9 -  9) =    -13.74451  eV     1   -->   ?
     e( 10 - 10) =    -13.70889  eV     1   -->   ?
     e( 11 - 11) =    -13.63143  eV     1   -->   ?
     e( 12 - 12) =    -13.50867  eV     1   -->   ?
     e( 13 - 13) =    -13.44696  eV     1   -->   ?
     e( 14 - 14) =    -13.33360  eV     1   -->   ?
     e( 15 - 15) =    -13.28571  eV     1   -->   ?
     e( 16 - 16) =    -13.10756  eV     1   -->   ?
     e( 17 - 17) =    -13.01046  eV     1   -->   ?
     e( 18 - 18) =     -7.03840  eV     1   -->   ?
     e( 19 - 19) =     -6.98423  eV     1   -->   ?
     e( 20 - 20) =     -6.86443  eV     1   -->   ?
     e( 21 - 21) =     -6.85296  eV     1   -->   ?
     e( 22 - 22) =     -6.77145  eV     1   -->   ?
     e( 23 - 23) =     -6.73608  eV     1   -->   ?
     e( 24 - 24) =     -6.58678  eV     1   -->   ?
     e( 25 - 25) =     -6.51621  eV     1   -->   ?
     e( 26 - 26) =     -6.44631  eV     1   -->   ?
     e( 27 - 27) =     -6.22774  eV     1   -->   ?
     e( 28 - 28) =     -6.20671  eV     1   -->   ?
     e( 29 - 29) =     -5.96661  eV     1   -->   ?
     e( 30 - 30) =     -5.79220  eV     1   -->   ?
     e( 31 - 31) =     -5.72693  eV     1   -->   ?
     e( 32 - 32) =     -5.50679  eV     1   -->   ?
     e( 33 - 33) =     -5.46886  eV     1   -->   ?
     e( 34 - 34) =     -5.40331  eV     1   -->   ?
     e( 35 - 35) =     -5.33645  eV     1   -->   ?
     e( 36 - 36) =     -5.31793  eV     1   -->   ?
     e( 37 - 37) =     -5.28096  eV     1   -->   ?
     e( 38 - 38) =     -5.23097  eV     1   -->   ?
     e( 39 - 39) =     -5.22493  eV     1   -->   ?
     e( 40 - 40) =     -5.06773  eV     1   -->   ?
     e( 41 - 41) =     -4.92734  eV     1   -->   ?
     e( 42 - 42) =     -4.88154  eV     1   -->   ?
     e( 43 - 43) =     -4.78477  eV     1   -->   ?
     e( 44 - 44) =     -4.48651  eV     1   -->   ?
     e( 45 - 45) =     -4.41279  eV     1   -->   ?
     e( 46 - 46) =     -4.33087  eV     1   -->   ?
     e( 47 - 47) =     -4.16185  eV     1   -->   ?
     e( 48 - 48) =     -4.04878  eV     1   -->   ?
     e( 49 - 49) =     -4.02309  eV     1   -->   ?
     e( 50 - 50) =     -3.89074  eV     1   -->   ?
     e( 51 - 51) =     -3.85100  eV     1   -->   ?
     e( 52 - 52) =     -3.72422  eV     1   -->   ?
     e( 53 - 53) =     -3.49002  eV     1   -->   ?
     e( 54 - 54) =     -3.44225  eV     1   -->   ?
     e( 55 - 55) =     -3.39938  eV     1   -->   ?
     e( 56 - 56) =     -3.24279  eV     1   -->   ?
     e( 57 - 57) =     -3.11259  eV     1   -->   ?
     e( 58 - 58) =     -3.02805  eV     1   -->   ?
     e( 59 - 59) =     -2.90871  eV     1   -->   ?
     e( 60 - 60) =     -2.90315  eV     1   -->   ?
     e( 61 - 61) =     -2.76558  eV     1   -->   ?
     e( 62 - 62) =     -2.76283  eV     1   -->   ?
     e( 63 - 63) =     -2.66649  eV     1   -->   ?
     e( 64 - 64) =     -2.63021  eV     1   -->   ?
     e( 65 - 65) =     -2.59561  eV     1   -->   ?
     e( 66 - 66) =     -2.50095  eV     1   -->   ?
     e( 67 - 67) =     -2.48068  eV     1   -->   ?
     e( 68 - 68) =     -2.29448  eV     1   -->   ?
     e( 69 - 69) =     -2.28161  eV     1   -->   ?
     e( 70 - 70) =     -2.20823  eV     1   -->   ?
     e( 71 - 71) =     -2.19059  eV     1   -->   ?
     e( 72 - 72) =     -2.15193  eV     1   -->   ?
     e( 73 - 73) =     -2.06338  eV     1   -->   ?
     e( 74 - 74) =     -2.00279  eV     1   -->   ?
     e( 75 - 75) =     -1.52923  eV     1   -->   ?
     e( 76 - 76) =     -1.25474  eV     1   -->   ?
     e( 77 - 77) =     -1.25330  eV     1   -->   ?
     e( 78 - 78) =     -1.11880  eV     1   -->   ?
     e( 79 - 79) =      0.19941  eV     1   -->   ?
     e( 80 - 80) =      0.20218  eV     1   -->   ?
     e( 81 - 81) =      1.04527  eV     1   -->   ?
     e( 82 - 82) =      1.05081  eV     1   -->   ?
     e( 83 - 83) =      1.18897  eV     1   -->   ?
     e( 84 - 84) =      1.24403  eV     1   -->   ?
     e( 85 - 85) =      1.35206  eV     1   -->   ?
     e( 86 - 86) =      1.38279  eV     1   -->   ?
     e( 87 - 87) =      1.42796  eV     1   -->   ?
     e( 88 - 88) =      1.53771  eV     1   -->   ?
     e( 89 - 89) =      1.59915  eV     1   -->   ?
     e( 90 - 90) =      1.64343  eV     1   -->   ?
     e( 91 - 91) =      1.73064  eV     1   -->   ?
     e( 92 - 92) =      1.73204  eV     1   -->   ?
     e( 93 - 93) =      1.85548  eV     1   -->   ?
     e( 94 - 94) =      1.88668  eV     1   -->   ?
     e( 95 - 95) =      2.01799  eV     1   -->   ?
     e( 96 - 96) =      2.06613  eV     1   -->   ?
     e( 97 - 97) =      2.14844  eV     1   -->   ?
     e( 98 - 98) =      2.22485  eV     1   -->   ?
     e( 99 - 99) =      2.29279  eV     1   -->   ?
     e(100 -100) =      2.47448  eV     1   -->   ?

 **************************************************************************

 **************************************************************************

                    xk=(   0.15452,  -0.08921,   0.00000  )

     Band symmetry, C_1 (1)     point group:

     e(  1 -  1) =    -15.58015  eV     1   -->   ?
     e(  2 -  2) =    -14.55143  eV     1   -->   ?
     e(  3 -  3) =    -14.41416  eV     1   -->   ?
     e(  4 -  4) =    -14.39770  eV     1   -->   ?
     e(  5 -  5) =    -14.29531  eV     1   -->   ?
     e(  6 -  6) =    -14.06130  eV     1   -->   ?
     e(  7 -  7) =    -13.97495  eV     1   -->   ?
     e(  8 -  8) =    -13.87109  eV     1   -->   ?
     e(  9 -  9) =    -13.75195  eV     1   -->   ?
     e( 10 - 10) =    -13.71426  eV     1   -->   ?
     e( 11 - 11) =    -13.63115  eV     1   -->   ?
     e( 12 - 12) =    -13.49938  eV     1   -->   ?
     e( 13 - 13) =    -13.43481  eV     1   -->   ?
     e( 14 - 14) =    -13.33392  eV     1   -->   ?
     e( 15 - 15) =    -13.29170  eV     1   -->   ?
     e( 16 - 16) =    -13.11114  eV     1   -->   ?
     e( 17 - 17) =    -13.01474  eV     1   -->   ?
     e( 18 - 18) =     -7.03519  eV     1   -->   ?
     e( 19 - 19) =     -7.00218  eV     1   -->   ?
     e( 20 - 20) =     -6.86549  eV     1   -->   ?
     e( 21 - 21) =     -6.85165  eV     1   -->   ?
     e( 22 - 22) =     -6.77189  eV     1   -->   ?
     e( 23 - 23) =     -6.73755  eV     1   -->   ?
     e( 24 - 24) =     -6.57660  eV     1   -->   ?
     e( 25 - 25) =     -6.51073  eV     1   -->   ?
     e( 26 - 26) =     -6.43605  eV     1   -->   ?
     e( 27 - 27) =     -6.25694  eV     1   -->   ?
     e( 28 - 28) =     -6.23209  eV     1   -->   ?
     e( 29 - 29) =     -5.98703  eV     1   -->   ?
     e( 30 - 30) =     -5.80352  eV     1   -->   ?
     e( 31 - 31) =     -5.73793  eV     1   -->   ?
     e( 32 - 32) =     -5.49068  eV     1   -->   ?
     e( 33 - 33) =     -5.44409  eV     1   -->   ?
     e( 34 - 34) =     -5.37582  eV     1   -->   ?
     e( 35 - 35) =     -5.33234  eV     1   -->   ?
     e( 36 - 36) =     -5.30366  eV     1   -->   ?
     e( 37 - 37) =     -5.26592  eV     1   -->   ?
     e( 38 - 38) =     -5.22778  eV     1   -->   ?
     e( 39 - 39) =     -5.21682  eV     1   -->   ?
     e( 40 - 40) =     -5.06809  eV     1   -->   ?
     e( 41 - 41) =     -4.92325  eV     1   -->   ?
     e( 42 - 42) =     -4.86578  eV     1   -->   ?
     e( 43 - 43) =     -4.76678  eV     1   -->   ?
     e( 44 - 44) =     -4.49147  eV     1   -->   ?
     e( 45 - 45) =     -4.42228  eV     1   -->   ?
     e( 46 - 46) =     -4.32758  eV     1   -->   ?
     e( 47 - 47) =     -4.18087  eV     1   -->   ?
     e( 48 - 48) =     -4.06617  eV     1   -->   ?
     e( 49 - 49) =     -4.03780  eV     1   -->   ?
     e( 50 - 50) =     -3.89024  eV     1   -->   ?
     e( 51 - 51) =     -3.86798  eV     1   -->   ?
     e( 52 - 52) =     -3.71323  eV     1   -->   ?
     e( 53 - 53) =     -3.49917  eV     1   -->   ?
     e( 54 - 54) =     -3.45867  eV     1   -->   ?
     e( 55 - 55) =     -3.39826  eV     1   -->   ?
     e( 56 - 56) =     -3.23195  eV     1   -->   ?
     e( 57 - 57) =     -3.11148  eV     1   -->   ?
     e( 58 - 58) =     -3.02901  eV     1   -->   ?
     e( 59 - 59) =     -2.90374  eV     1   -->   ?
     e( 60 - 60) =     -2.89300  eV     1   -->   ?
     e( 61 - 61) =     -2.76075  eV     1   -->   ?
     e( 62 - 62) =     -2.75652  eV     1   -->   ?
     e( 63 - 63) =     -2.68737  eV     1   -->   ?
     e( 64 - 64) =     -2.64922  eV     1   -->   ?
     e( 65 - 65) =     -2.61573  eV     1   -->   ?
     e( 66 - 66) =     -2.52588  eV     1   -->   ?
     e( 67 - 67) =     -2.47845  eV     1   -->   ?
     e( 68 - 68) =     -2.28737  eV     1   -->   ?
     e( 69 - 69) =     -2.27158  eV     1   -->   ?
     e( 70 - 70) =     -2.19300  eV     1   -->   ?
     e( 71 - 71) =     -2.17450  eV     1   -->   ?
     e( 72 - 72) =     -2.13738  eV     1   -->   ?
     e( 73 - 73) =     -2.04794  eV     1   -->   ?
     e( 74 - 74) =     -1.98563  eV     1   -->   ?
     e( 75 - 75) =     -1.52807  eV     1   -->   ?
     e( 76 - 76) =     -1.26723  eV     1   -->   ?
     e( 77 - 77) =     -1.26533  eV     1   -->   ?
     e( 78 - 78) =     -1.12401  eV     1   -->   ?
     e( 79 - 79) =      0.20320  eV     1   -->   ?
     e( 80 - 80) =      0.20634  eV     1   -->   ?
     e( 81 - 81) =      1.05650  eV     1   -->   ?
     e( 82 - 82) =      1.06246  eV     1   -->   ?
     e( 83 - 83) =      1.17388  eV     1   -->   ?
     e( 84 - 84) =      1.23351  eV     1   -->   ?
     e( 85 - 85) =      1.34864  eV     1   -->   ?
     e( 86 - 86) =      1.38180  eV     1   -->   ?
     e( 87 - 87) =      1.42459  eV     1   -->   ?
     e( 88 - 88) =      1.54843  eV     1   -->   ?
     e( 89 - 89) =      1.60632  eV     1   -->   ?
     e( 90 - 90) =      1.66348  eV     1   -->   ?
     e( 91 - 91) =      1.74483  eV     1   -->   ?
     e( 92 - 92) =      1.74916  eV     1   -->   ?
     e( 93 - 93) =      1.85735  eV     1   -->   ?
     e( 94 - 94) =      1.89351  eV     1   -->   ?
     e( 95 - 95) =      2.01647  eV     1   -->   ?
     e( 96 - 96) =      2.07647  eV     1   -->   ?
     e( 97 - 97) =      2.13721  eV     1   -->   ?
     e( 98 - 98) =      2.22539  eV     1   -->   ?
     e( 99 - 99) =      2.27299  eV     1   -->   ?
     e(100 -100) =      2.45455  eV     1   -->   ?

 **************************************************************************

 **************************************************************************

                    xk=(   0.16857,  -0.09733,   0.00000  )

     Band symmetry, C_1 (1)     point group:

     e(  1 -  1) =    -15.57270  eV     1   -->   ?
     e(  2 -  2) =    -14.57948  eV     1   -->   ?
     e(  3 -  3) =    -14.41277  eV     1   -->   ?
     e(  4 -  4) =    -14.40850  eV     1   -->   ?
     e(  5 -  5) =    -14.29965  eV     1   -->   ?
     e(  6 -  6) =    -14.04401  eV     1   -->   ?
     e(  7 -  7) =    -13.95697  eV     1   -->   ?
     e(  8 -  8) =    -13.86653  eV     1   -->   ?
     e(  9 -  9) =    -13.75616  eV     1   -->   ?
     e( 10 - 10) =    -13.71953  eV     1   -->   ?
     e( 11 - 11) =    -13.63048  eV     1   -->   ?
     e( 12 - 12) =    -13.48984  eV     1   -->   ?
     e( 13 - 13) =    -13.42312  eV     1   -->   ?
     e( 14 - 14) =    -13.33417  eV     1   -->   ?
     e( 15 - 15) =    -13.29821  eV     1   -->   ?
     e( 16 - 16) =    -13.11498  eV     1   -->   ?
     e( 17 - 17) =    -13.01940  eV     1   -->   ?
     e( 18 - 18) =     -7.04094  eV     1   -->   ?
     e( 19 - 19) =     -7.01066  eV     1   -->   ?
     e( 20 - 20) =     -6.86664  eV     1   -->   ?
     e( 21 - 21) =     -6.85143  eV     1   --> A              
     e( 22 - 22) =     -6.77074  eV     1   -->   ?
     e( 23 - 23) =     -6.73826  eV     1   -->   ?
     e( 24 - 24) =     -6.56646  eV     1   -->   ?
     e( 25 - 25) =     -6.50577  eV     1   -->   ?
     e( 26 - 26) =     -6.42749  eV     1   -->   ?
     e( 27 - 27) =     -6.28504  eV     1   -->   ?
     e( 28 - 28) =     -6.25621  eV     1   -->   ?
     e( 29 - 29) =     -6.00733  eV     1   -->   ?
     e( 30 - 30) =     -5.81471  eV     1   -->   ?
     e( 31 - 31) =     -5.74944  eV     1   -->   ?
     e( 32 - 32) =     -5.47527  eV     1   -->   ?
     e( 33 - 33) =     -5.42037  eV     1   -->   ?
     e( 34 - 34) =     -5.35444  eV     1   -->   ?
     e( 35 - 35) =     -5.32561  eV     1   -->   ?
     e( 36 - 36) =     -5.28985  eV     1   -->   ?
     e( 37 - 37) =     -5.25093  eV     1   -->   ?
     e( 38 - 38) =     -5.22372  eV     1   -->   ?
     e( 39 - 39) =     -5.20534  eV     1   -->   ?
     e( 40 - 40) =     -5.06756  eV     1   -->   ?
     e( 41 - 41) =     -4.91898  eV     1   -->   ?
     e( 42 - 42) =     -4.84845  eV     1   -->   ?
     e( 43 - 43) =     -4.74636  eV     1   -->   ?
     e( 44 - 44) =     -4.49581  eV     1   -->   ?
     e( 45 - 45) =     -4.43221  eV     1   -->   ?
     e( 46 - 46) =     -4.32463  eV     1   -->   ?
     e( 47 - 47) =     -4.19976  eV     1   -->   ?
     e( 48 - 48) =     -4.08392  eV     1   -->   ?
     e( 49 - 49) =     -4.05348  eV     1   -->   ?
     e( 50 - 50) =     -3.89095  eV     1   -->   ?
     e( 51 - 51) =     -3.88621  eV     1   -->   ?
     e( 52 - 52) =     -3.70090  eV     1   -->   ?
     e( 53 - 53) =     -3.51442  eV     1   -->   ?
     e( 54 - 54) =     -3.47061  eV     1   -->   ?
     e( 55 - 55) =     -3.39633  eV     1   -->   ?
     e( 56 - 56) =     -3.22078  eV     1   -->   ?
     e( 57 - 57) =     -3.11176  eV     1   -->   ?
     e( 58 - 58) =     -3.02858  eV     1   -->   ?
     e( 59 - 59) =     -2.89976  eV     1   -->   ?
     e( 60 - 60) =     -2.88302  eV     1   -->   ?
     e( 61 - 61) =     -2.76271  eV     1   -->   ?
     e( 62 - 62) =     -2.75679  eV     1   -->   ?
     e( 63 - 63) =     -2.69931  eV     1   -->   ?
     e( 64 - 64) =     -2.66559  eV     1   -->   ?
     e( 65 - 65) =     -2.63621  eV     1   -->   ?
     e( 66 - 66) =     -2.55077  eV     1   -->   ?
     e( 67 - 67) =     -2.47434  eV     1   -->   ?
     e( 68 - 68) =     -2.28012  eV     1   -->   ?
     e( 69 - 69) =     -2.26079  eV     1   -->   ?
     e( 70 - 70) =     -2.17806  eV     1   -->   ?
     e( 71 - 71) =     -2.15778  eV     1   -->   ?
     e( 72 - 72) =     -2.12338  eV     1   -->   ?
     e( 73 - 73) =     -2.03177  eV     1   -->   ?
     e( 74 - 74) =     -1.96888  eV     1   -->   ?
     e( 75 - 75) =     -1.52700  eV     1   -->   ?
     e( 76 - 76) =     -1.28046  eV     1   -->   ?
     e( 77 - 77) =     -1.27798  eV     1   -->   ?
     e( 78 - 78) =     -1.12961  eV     1   -->   ?
     e( 79 - 79) =      0.20714  eV     1   -->   ?
     e( 80 - 80) =      0.21062  eV     1   -->   ?
     e( 81 - 81) =      1.06760  eV     1   -->   ?
     e( 82 - 82) =      1.07353  eV     1   -->   ?
     e( 83 - 83) =      1.15968  eV     1   -->   ?
     e( 84 - 84) =      1.22482  eV     1   -->   ?
     e( 85 - 85) =      1.34589  eV     1   -->   ?
     e( 86 - 86) =      1.38098  eV     1   -->   ?
     e( 87 - 87) =      1.42197  eV     1   -->   ?
     e( 88 - 88) =      1.55873  eV     1   -->   ?
     e( 89 - 89) =      1.61384  eV     1   -->   ?
     e( 90 - 90) =      1.68335  eV     1   -->   ?
     e( 91 - 91) =      1.75945  eV     1   -->   ?
     e( 92 - 92) =      1.76628  eV     1   -->   ?
     e( 93 - 93) =      1.85977  eV     1   -->   ?
     e( 94 - 94) =      1.90061  eV     1   -->   ?
     e( 95 - 95) =      2.01316  eV     1   -->   ?
     e( 96 - 96) =      2.08736  eV     1   -->   ?
     e( 97 - 97) =      2.12707  eV     1   -->   ?
     e( 98 - 98) =      2.22582  eV     1   -->   ?
     e( 99 - 99) =      2.25314  eV     1   -->   ?
     e(100 -100) =      2.43457  eV     1   -->   ?

 **************************************************************************

 **************************************************************************

                    xk=(   0.18262,  -0.10544,   0.00000  )

     Band symmetry, C_1 (1)     point group:

     e(  1 -  1) =    -15.56462  eV     1   -->   ?
     e(  2 -  2) =    -14.60772  eV     1   -->   ?
     e(  3 -  3) =    -14.41894  eV     1   -->   ?
     e(  4 -  4) =    -14.41130  eV     1   -->   ?
     e(  5 -  5) =    -14.30354  eV     1   -->   ?
     e(  6 -  6) =    -14.02655  eV     1   -->   ?
     e(  7 -  7) =    -13.93990  eV     1   -->   ?
     e(  8 -  8) =    -13.86572  eV     1   -->   ?
     e(  9 -  9) =    -13.75626  eV     1   -->   ?
     e( 10 - 10) =    -13.72465  eV     1   -->   ?
     e( 11 - 11) =    -13.62942  eV     1   -->   ?
     e( 12 - 12) =    -13.48008  eV     1   -->   ?
     e( 13 - 13) =    -13.41198  eV     1   -->   ?
     e( 14 - 14) =    -13.33428  eV     1   -->   ?
     e( 15 - 15) =    -13.30524  eV     1   -->   ?
     e( 16 - 16) =    -13.11907  eV     1   -->   ?
     e( 17 - 17) =    -13.02443  eV     1   -->   ?
     e( 18 - 18) =     -7.05764  eV     1   -->   ?
     e( 19 - 19) =     -7.00757  eV     1   -->   ?
     e( 20 - 20) =     -6.86786  eV     1   -->   ?
     e( 21 - 21) =     -6.85235  eV     1   -->   ?
     e( 22 - 22) =     -6.76795  eV     1   -->   ?
     e( 23 - 23) =     -6.73818  eV     1   -->   ?
     e( 24 - 24) =     -6.55654  eV     1   -->   ?
     e( 25 - 25) =     -6.50157  eV     1   -->   ?
     e( 26 - 26) =     -6.42120  eV     1   -->   ?
     e( 27 - 27) =     -6.31140  eV     1   -->   ?
     e( 28 - 28) =     -6.27873  eV     1   -->   ?
     e( 29 - 29) =     -6.02742  eV     1   -->   ?
     e( 30 - 30) =     -5.82574  eV     1   -->   ?
     e( 31 - 31) =     -5.76139  eV     1   -->   ?
     e( 32 - 32) =     -5.46062  eV     1   -->   ?
     e( 33 - 33) =     -5.39773  eV     1   -->   ?
     e( 34 - 34) =     -5.34348  eV     1   -->   ?
     e( 35 - 35) =     -5.31254  eV     1   -->   ?
     e( 36 - 36) =     -5.27710  eV     1   -->   ?
     e( 37 - 37) =     -5.23667  eV     1   -->   ?
     e( 38 - 38) =     -5.21851  eV     1   -->   ?
     e( 39 - 39) =     -5.18971  eV     1   -->   ?
     e( 40 - 40) =     -5.06585  eV     1   -->   ?
     e( 41 - 41) =     -4.91451  eV     1   -->   ?
     e( 42 - 42) =     -4.82969  eV     1   -->   ?
     e( 43 - 43) =     -4.72356  eV     1   -->   ?
     e( 44 - 44) =     -4.49930  eV     1   -->   ?
     e( 45 - 45) =     -4.44249  eV     1   -->   ?
     e( 46 - 46) =     -4.32209  eV     1   -->   ?
     e( 47 - 47) =     -4.21833  eV     1   -->   ?
     e( 48 - 48) =     -4.10175  eV     1   -->   ?
     e( 49 - 49) =     -4.07006  eV     1   -->   ?
     e( 50 - 50) =     -3.90560  eV     1   -->   ?
     e( 51 - 51) =     -3.89267  eV     1   -->   ?
     e( 52 - 52) =     -3.68738  eV     1   -->   ?
     e( 53 - 53) =     -3.53486  eV     1   -->   ?
     e( 54 - 54) =     -3.47893  eV     1   -->   ?
     e( 55 - 55) =     -3.39358  eV     1   -->   ?
     e( 56 - 56) =     -3.20935  eV     1   -->   ?
     e( 57 - 57) =     -3.11308  eV     1   -->   ?
     e( 58 - 58) =     -3.02716  eV     1   -->   ?
     e( 59 - 59) =     -2.89688  eV     1   -->   ?
     e( 60 - 60) =     -2.87362  eV     1   -->   ?
     e( 61 - 61) =     -2.77085  eV     1   -->   ?
     e( 62 - 62) =     -2.76967  eV     1   -->   ?
     e( 63 - 63) =     -2.70050  eV     1   -->   ?
     e( 64 - 64) =     -2.67794  eV     1   -->   ?
     e( 65 - 65) =     -2.65510  eV     1   -->   ?
     e( 66 - 66) =     -2.57488  eV     1   -->   ?
     e( 67 - 67) =     -2.46844  eV     1   -->   ?
     e( 68 - 68) =     -2.27272  eV     1   -->   ?
     e( 69 - 69) =     -2.24935  eV     1   -->   ?
     e( 70 - 70) =     -2.16375  eV     1   -->   ?
     e( 71 - 71) =     -2.14017  eV     1   -->   ?
     e( 72 - 72) =     -2.10996  eV     1   -->   ?
     e( 73 - 73) =     -2.01501  eV     1   -->   ?
     e( 74 - 74) =     -1.95258  eV     1   -->   ?
     e( 75 - 75) =     -1.52608  eV     1   -->   ?
     e( 76 - 76) =     -1.29434  eV     1   -->   ?
     e( 77 - 77) =     -1.29113  eV     1   -->   ?
     e( 78 - 78) =     -1.13559  eV     1   -->   ?
     e( 79 - 79) =      0.21120  eV     1   -->   ?
     e( 80 - 80) =      0.21498  eV     1   -->   ?
     e( 81 - 81) =      1.07799  eV     1   -->   ?
     e( 82 - 82) =      1.08331  eV     1   -->   ?
     e( 83 - 83) =      1.14682  eV     1   -->   ?
     e( 84 - 84) =      1.21852  eV     1   -->   ?
     e( 85 - 85) =      1.34394  eV     1   -->   ?
     e( 86 - 86) =      1.38038  eV     1   -->   ?
     e( 87 - 87) =      1.42026  eV     1   -->   ?
     e( 88 - 88) =      1.56867  eV     1   -->   ?
     e( 89 - 89) =      1.62165  eV     1   -->   ?
     e( 90 - 90) =      1.70253  eV     1   -->   ?
     e( 91 - 91) =      1.77430  eV     1   -->   ?
     e( 92 - 92) =      1.78327  eV     1   -->   ?
     e( 93 - 93) =      1.86298  eV     1   -->   ?
     e( 94 - 94) =      1.90791  eV     1   -->   ?
     e( 95 - 95) =      2.00745  eV     1   -->   ?
     e( 96 - 96) =      2.09859  eV     1   -->   ?
     e( 97 - 97) =      2.11862  eV     1   -->   ?
     e( 98 - 98) =      2.22601  eV     1   -->   ?
     e( 99 - 99) =      2.23364  eV     1   -->   ?
     e(100 -100) =      2.41513  eV     1   -->   ?

 **************************************************************************

 **************************************************************************

                    xk=(   0.19667,  -0.11355,   0.00000  )

     Band symmetry, C_1 (1)     point group:

     e(  1 -  1) =    -15.55592  eV     1   -->   ?
     e(  2 -  2) =    -14.63603  eV     1   -->   ?
     e(  3 -  3) =    -14.42901  eV     1   -->   ?
     e(  4 -  4) =    -14.40993  eV     1   -->   ?
     e(  5 -  5) =    -14.30683  eV     1   -->   ?
     e(  6 -  6) =    -14.00897  eV     1   -->   ?
     e(  7 -  7) =    -13.92399  eV     1   -->   ?
     e(  8 -  8) =    -13.86859  eV     1   -->   ?
     e(  9 -  9) =    -13.75223  eV     1   -->   ?
     e( 10 - 10) =    -13.72959  eV     1   -->   ?
     e( 11 - 11) =    -13.62794  eV     1   -->   ?
     e( 12 - 12) =    -13.47015  eV     1   -->   ?
     e( 13 - 13) =    -13.40154  eV     1   -->   ?
     e( 14 - 14) =    -13.33415  eV     1   -->   ?
     e( 15 - 15) =    -13.31279  eV     1   -->   ?
     e( 16 - 16) =    -13.12338  eV     1   -->   ?
     e( 17 - 17) =    -13.02983  eV     1   -->   ?
     e( 18 - 18) =     -7.07750  eV     1   -->   ?
     e( 19 - 19) =     -7.00063  eV     1   -->   ?
     e( 20 - 20) =     -6.86909  eV     1   -->   ?
     e( 21 - 21) =     -6.85429  eV     1   -->   ?
     e( 22 - 22) =     -6.76369  eV     1   -->   ?
     e( 23 - 23) =     -6.73733  eV     1   -->   ?
     e( 24 - 24) =     -6.54697  eV     1   -->   ?
     e( 25 - 25) =     -6.49839  eV     1   -->   ?
     e( 26 - 26) =     -6.41830  eV     1   -->   ?
     e( 27 - 27) =     -6.33486  eV     1   -->   ?
     e( 28 - 28) =     -6.29928  eV     1   -->   ?
     e( 29 - 29) =     -6.04718  eV     1   -->   ?
     e( 30 - 30) =     -5.83660  eV     1   -->   ?
     e( 31 - 31) =     -5.77374  eV     1   -->   ?
     e( 32 - 32) =     -5.44685  eV     1   -->   ?
     e( 33 - 33) =     -5.37612  eV     1   -->   ?
     e( 34 - 34) =     -5.33937  eV     1   -->   ?
     e( 35 - 35) =     -5.29681  eV     1   -->   ?
     e( 36 - 36) =     -5.26598  eV     1   -->   ?
     e( 37 - 37) =     -5.22344  eV     1   -->   ?
     e( 38 - 38) =     -5.21188  eV     1   -->   ?
     e( 39 - 39) =     -5.16988  eV     1   -->   ?
     e( 40 - 40) =     -5.06262  eV     1   -->   ?
     e( 41 - 41) =     -4.90979  eV     1   -->   ?
     e( 42 - 42) =     -4.80974  eV     1   -->   ?
     e( 43 - 43) =     -4.69849  eV     1   -->   ?
     e( 44 - 44) =     -4.50172  eV     1   -->   ?
[...]
     e( 89 - 89) =      1.55142  eV     1   --> A              
     e( 90 - 90) =      1.56493  eV     1   --> A              
     e( 91 - 91) =      1.62052  eV     1   --> A              
     e( 92 - 92) =      1.65779  eV     1   --> A              
     e( 93 - 93) =      1.84869  eV     1   --> A              
     e( 94 - 94) =      1.85197  eV     1   --> A              
     e( 95 - 95) =      2.01422  eV     1   --> A              
     e( 96 - 96) =      2.01831  eV     1   --> A              
     e( 97 - 97) =      2.21447  eV     1   --> A              
     e( 98 - 98) =      2.22213  eV     1   --> A              
     e( 99 - 99) =      2.40433  eV     1   --> A              
     e(100 -100) =      2.58104  eV     1   --> A              

 **************************************************************************

 **************************************************************************

                    xk=(   0.01605,  -0.02781,   0.00000  )

     Band symmetry, C_1 (1)     point group:

     e(  1 -  1) =    -15.61827  eV     1   --> A              
     e(  2 -  2) =    -14.43535  eV     1   --> A              
     e(  3 -  3) =    -14.30080  eV     1   --> A              
     e(  4 -  4) =    -14.29609  eV     1   --> A              
     e(  5 -  5) =    -14.24863  eV     1   --> A              
     e(  6 -  6) =    -14.19904  eV     1   --> A              
     e(  7 -  7) =    -14.17137  eV     1   --> A              
     e(  8 -  8) =    -13.94081  eV     1   --> A              
     e(  9 -  9) =    -13.67191  eV     1   --> A              
     e( 10 - 10) =    -13.67144  eV     1   --> A              
     e( 11 - 11) =    -13.60413  eV     1   --> A              
     e( 12 - 12) =    -13.56445  eV     1   --> A              
     e( 13 - 13) =    -13.55120  eV     1   --> A              
     e( 14 - 14) =    -13.33161  eV     1   --> A              
     e( 15 - 15) =    -13.25796  eV     1   --> A              
     e( 16 - 16) =    -13.09033  eV     1   --> A              
     e( 17 - 17) =    -12.99053  eV     1   --> A              
     e( 18 - 18) =     -7.06858  eV     1   --> A              
     e( 19 - 19) =     -6.87476  eV     1   --> A              
     e( 20 - 20) =     -6.87258  eV     1   --> A              
     e( 21 - 21) =     -6.81902  eV     1   --> A              
     e( 22 - 22) =     -6.74687  eV     1   --> A              
     e( 23 - 23) =     -6.73742  eV     1   --> A              
     e( 24 - 24) =     -6.62988  eV     1   --> A              
     e( 25 - 25) =     -6.55574  eV     1   --> A              
     e( 26 - 26) =     -6.54810  eV     1   --> A              
     e( 27 - 27) =     -6.01028  eV     1   --> A              
     e( 28 - 28) =     -6.00951  eV     1   --> A              
     e( 29 - 29) =     -5.82231  eV     1   --> A              
     e( 30 - 30) =     -5.69252  eV     1   --> A              
     e( 31 - 31) =     -5.68273  eV     1   --> A              
     e( 32 - 32) =     -5.67403  eV     1   --> A              
     e( 33 - 33) =     -5.64774  eV     1   --> A              
     e( 34 - 34) =     -5.62145  eV     1   --> A              
     e( 35 - 35) =     -5.40276  eV     1   --> A              
     e( 36 - 36) =     -5.40177  eV     1   --> A              
     e( 37 - 37) =     -5.33056  eV     1   --> A              
     e( 38 - 38) =     -5.24196  eV     1   --> A              
     e( 39 - 39) =     -5.24172  eV     1   --> A              
     e( 40 - 40) =     -5.05585  eV     1   --> A              
     e( 41 - 41) =     -4.95144  eV     1   --> A              
     e( 42 - 42) =     -4.95007  eV     1   --> A              
     e( 43 - 43) =     -4.85438  eV     1   --> A              
     e( 44 - 44) =     -4.44601  eV     1   --> A              
     e( 45 - 45) =     -4.36310  eV     1   --> A              
     e( 46 - 46) =     -4.35866  eV     1   --> A              
     e( 47 - 47) =     -4.03039  eV     1   --> A              
     e( 48 - 48) =     -3.95337  eV     1   --> A              
     e( 49 - 49) =     -3.94781  eV     1   --> A              
     e( 50 - 50) =     -3.93735  eV     1   --> A              
     e( 51 - 51) =     -3.76897  eV     1   --> A              
     e( 52 - 52) =     -3.76436  eV     1   --> A              
     e( 53 - 53) =     -3.47868  eV     1   --> A              
     e( 54 - 54) =     -3.38882  eV     1   --> A              
     e( 55 - 55) =     -3.31700  eV     1   --> A              
     e( 56 - 56) =     -3.30596  eV     1   --> A              
     e( 57 - 57) =     -3.15382  eV     1   --> A              
     e( 58 - 58) =     -2.98344  eV     1   --> A              
     e( 59 - 59) =     -2.96178  eV     1   --> A              
     e( 60 - 60) =     -2.95821  eV     1   --> A              
     e( 61 - 61) =     -2.83415  eV     1   --> A              
     e( 62 - 62) =     -2.83044  eV     1   --> A              
     e( 63 - 63) =     -2.49495  eV     1   --> A              
     e( 64 - 64) =     -2.49163  eV     1   --> A              
     e( 65 - 65) =     -2.46094  eV     1   --> A              
     e( 66 - 66) =     -2.43176  eV     1   --> A              
     e( 67 - 67) =     -2.39363  eV     1   --> A              
     e( 68 - 68) =     -2.35666  eV     1   --> A              
     e( 69 - 69) =     -2.30421  eV     1   --> A              
     e( 70 - 70) =     -2.30312  eV     1   --> A              
     e( 71 - 71) =     -2.29025  eV     1   --> A              
     e( 72 - 72) =     -2.26267  eV     1   --> A              
     e( 73 - 73) =     -2.14530  eV     1   --> A              
     e( 74 - 74) =     -2.13705  eV     1   --> A              
     e( 75 - 75) =     -1.53668  eV     1   --> A              
     e( 76 - 76) =     -1.19210  eV     1   --> A              
     e( 77 - 77) =     -1.19198  eV     1   --> A              
     e( 78 - 78) =     -1.09353  eV     1   --> A              
     e( 79 - 79) =      0.17969  eV     1   --> A              
     e( 80 - 80) =      0.17988  eV     1   --> A              
     e( 81 - 81) =      0.98174  eV     1   --> A              
     e( 82 - 82) =      0.98198  eV     1   --> A              
     e( 83 - 83) =      1.32206  eV     1   --> A              
     e( 84 - 84) =      1.35660  eV     1   --> A              
     e( 85 - 85) =      1.37654  eV     1   --> A              
     e( 86 - 86) =      1.38653  eV     1   --> A              
     e( 87 - 87) =      1.42787  eV     1   --> A              
     e( 88 - 88) =      1.43763  eV     1   --> A              
     e( 89 - 89) =      1.55426  eV     1   --> A              
     e( 90 - 90) =      1.56213  eV     1   --> A              
     e( 91 - 91) =      1.60832  eV     1   --> A              
     e( 92 - 92) =      1.65327  eV     1   --> A              
     e( 93 - 93) =      1.84830  eV     1   --> A              
     e( 94 - 94) =      1.84984  eV     1   --> A              
     e( 95 - 95) =      2.01379  eV     1   --> A              
     e( 96 - 96) =      2.01565  eV     1   --> A              
     e( 97 - 97) =      2.21860  eV     1   --> A              
     e( 98 - 98) =      2.22203  eV     1   --> A              
     e( 99 - 99) =      2.41218  eV     1   --> A              
     e(100 -100) =      2.58798  eV     1   --> A              

 **************************************************************************

 **************************************************************************

                    xk=(   0.00803,  -0.01390,   0.00000  )

     Band symmetry, C_1 (1)     point group:

     e(  1 -  1) =    -15.61924  eV     1   --> A              
     e(  2 -  2) =    -14.43544  eV     1   --> A              
     e(  3 -  3) =    -14.28859  eV     1   --> A              
     e(  4 -  4) =    -14.28731  eV     1   --> A              
     e(  5 -  5) =    -14.23771  eV     1   --> A              
     e(  6 -  6) =    -14.20660  eV     1   --> A              
     e(  7 -  7) =    -14.19427  eV     1   --> A              
     e(  8 -  8) =    -13.94327  eV     1   --> A              
     e(  9 - 10) =    -13.66949  eV     2   -->   2 A              
     e( 11 - 11) =    -13.59560  eV     1   --> A              
     e( 12 - 12) =    -13.56685  eV     1   --> A              
     e( 13 - 13) =    -13.56222  eV     1   --> A              
     e( 14 - 14) =    -13.33154  eV     1   --> A              
     e( 15 - 15) =    -13.25710  eV     1   --> A              
     e( 16 - 16) =    -13.08979  eV     1   --> A              
     e( 17 - 17) =    -12.98991  eV     1   --> A              
     e( 18 - 18) =     -7.06959  eV     1   --> A              
     e( 19 - 19) =     -6.87393  eV     1   --> A              
     e( 20 - 20) =     -6.87340  eV     1   --> A              
     e( 21 - 21) =     -6.80950  eV     1   --> A              
     e( 22 - 22) =     -6.74530  eV     1   --> A              
     e( 23 - 23) =     -6.74267  eV     1   --> A              
     e( 24 - 24) =     -6.62770  eV     1   --> A              
     e( 25 - 25) =     -6.55751  eV     1   --> A              
     e( 26 - 26) =     -6.55535  eV     1   --> A              
     e( 27 - 27) =     -5.99834  eV     1   --> A              
     e( 28 - 28) =     -5.99802  eV     1   --> A              
     e( 29 - 29) =     -5.81281  eV     1   --> A              
     e( 30 - 30) =     -5.69149  eV     1   --> A              
     e( 31 - 31) =     -5.68873  eV     1   --> A              
     e( 32 - 32) =     -5.67673  eV     1   --> A              
     e( 33 - 33) =     -5.65020  eV     1   --> A              
     e( 34 - 34) =     -5.63922  eV     1   --> A              
     e( 35 - 35) =     -5.40604  eV     1   --> A              
     e( 36 - 36) =     -5.40576  eV     1   --> A              
     e( 37 - 37) =     -5.33114  eV     1   --> A              
     e( 38 - 38) =     -5.24212  eV     1   --> A              
     e( 39 - 39) =     -5.24199  eV     1   --> A              
     e( 40 - 40) =     -5.05521  eV     1   --> A              
     e( 41 - 41) =     -4.95242  eV     1   --> A              
     e( 42 - 42) =     -4.95202  eV     1   --> A              
     e( 43 - 43) =     -4.85607  eV     1   --> A              
     e( 44 - 44) =     -4.44394  eV     1   --> A              
     e( 45 - 45) =     -4.36138  eV     1   --> A              
     e( 46 - 46) =     -4.36021  eV     1   --> A              
     e( 47 - 47) =     -4.02248  eV     1   --> A              
     e( 48 - 48) =     -3.94881  eV     1   --> A              
     e( 49 - 49) =     -3.94726  eV     1   --> A              
     e( 50 - 50) =     -3.94195  eV     1   --> A              
     e( 51 - 51) =     -3.76638  eV     1   --> A              
     e( 52 - 52) =     -3.76514  eV     1   --> A              
     e( 53 - 53) =     -3.47871  eV     1   --> A              
     e( 54 - 54) =     -3.38759  eV     1   --> A              
     e( 55 - 55) =     -3.31158  eV     1   --> A              
     e( 56 - 56) =     -3.30865  eV     1   --> A              
     e( 57 - 57) =     -3.15678  eV     1   --> A              
     e( 58 - 58) =     -2.98075  eV     1   --> A              
     e( 59 - 59) =     -2.96221  eV     1   --> A              
     e( 60 - 60) =     -2.96146  eV     1   --> A              
     e( 61 - 61) =     -2.83623  eV     1   --> A              
     e( 62 - 62) =     -2.83532  eV     1   --> A              
     e( 63 - 63) =     -2.48825  eV     1   --> A              
     e( 64 - 64) =     -2.48752  eV     1   --> A              
     e( 65 - 65) =     -2.44599  eV     1   --> A              
     e( 66 - 66) =     -2.41652  eV     1   --> A              
     e( 67 - 67) =     -2.40210  eV     1   --> A              
     e( 68 - 68) =     -2.37190  eV     1   --> A              
     e( 69 - 69) =     -2.30434  eV     1   --> A              
     e( 70 - 70) =     -2.29876  eV     1   --> A              
     e( 71 - 71) =     -2.29516  eV     1   --> A              
     e( 72 - 72) =     -2.26679  eV     1   --> A              
     e( 73 - 73) =     -2.14825  eV     1   --> A              
     e( 74 - 74) =     -2.14595  eV     1   --> A              
     e( 75 - 75) =     -1.53696  eV     1   --> A              
     e( 76 - 77) =     -1.18999  eV     2   -->   2 A              
     e( 78 - 78) =     -1.09271  eV     1   --> A              
     e( 79 - 79) =      0.17896  eV     1   --> A              
     e( 80 - 80) =      0.17917  eV     1   --> A              
     e( 81 - 81) =      0.97944  eV     1   --> A              
     e( 82 - 82) =      0.97957  eV     1   --> A              
     e( 83 - 83) =      1.33501  eV     1   --> A              
     e( 84 - 84) =      1.36775  eV     1   --> A              
     e( 85 - 85) =      1.37607  eV     1   --> A              
     e( 86 - 86) =      1.38286  eV     1   --> A              
     e( 87 - 87) =      1.42402  eV     1   --> A              
     e( 88 - 88) =      1.42679  eV     1   --> A              
     e( 89 - 89) =      1.55822  eV     1   --> A              
     e( 90 - 90) =      1.56069  eV     1   --> A              
     e( 91 - 91) =      1.59887  eV     1   --> A              
     e( 92 - 92) =      1.65052  eV     1   --> A              
     e( 93 - 93) =      1.84806  eV     1   --> A              
     e( 94 - 94) =      1.84854  eV     1   --> A              
     e( 95 - 95) =      2.01353  eV     1   --> A              
     e( 96 - 96) =      2.01404  eV     1   --> A              
     e( 97 - 97) =      2.22110  eV     1   --> A              
     e( 98 - 98) =      2.22196  eV     1   --> A              
     e( 99 - 99) =      2.41705  eV     1   --> A              
     e(100 -100) =      2.59224  eV     1   --> A              

 **************************************************************************

 **************************************************************************

                    xk=(   0.00000,   0.00000,   0.00000  )

     Band symmetry, C_1 (1)     point group:

     e(  1 -  1) =    -15.61956  eV     1   --> A              
     e(  2 -  2) =    -14.43547  eV     1   --> A              
     e(  3 -  4) =    -14.28441  eV     2   -->   2 A              
     e(  5 -  5) =    -14.22594  eV     1   --> A              
     e(  6 -  6) =    -14.20978  eV     1   --> A              
     e(  7 -  7) =    -14.20955  eV     1   --> A              
     e(  8 -  8) =    -13.94410  eV     1   --> A              
     e(  9 - 10) =    -13.66874  eV     2   -->   2 A              
     e( 11 - 11) =    -13.59081  eV     1   --> A              
     e( 12 - 12) =    -13.56781  eV     1   --> A              
     e( 13 - 13) =    -13.56766  eV     1   --> A              
     e( 14 - 14) =    -13.33152  eV     1   --> A              
     e( 15 - 15) =    -13.25682  eV     1   --> A              
     e( 16 - 16) =    -13.08960  eV     1   --> A              
     e( 17 - 17) =    -12.98971  eV     1   --> A              
     e( 18 - 18) =     -7.06993  eV     1   --> A              
     e( 19 - 20) =     -6.87369  eV     2   -->   2 A              
     e( 21 - 21) =     -6.80576  eV     1   --> A              
     e( 22 - 22) =     -6.74495  eV     1   --> A              
     e( 23 - 23) =     -6.74478  eV     1   --> A              
     e( 24 - 24) =     -6.62670  eV     1   --> A              
     e( 25 - 26) =     -6.55810  eV     2   -->   2 A              
     e( 27 - 27) =     -5.99416  eV     1   --> A              
     e( 28 - 28) =     -5.99398  eV     1   --> A              
     e( 29 - 29) =     -5.80917  eV     1   --> A              
     e( 30 - 31) =     -5.69444  eV     2   -->   2 A              
     e( 32 - 32) =     -5.66668  eV     1   --> A              
     e( 33 - 34) =     -5.65055  eV     2   -->   2 A              
     e( 35 - 35) =     -5.40722  eV     1   --> A              
     e( 36 - 36) =     -5.40703  eV     1   --> A              
     e( 37 - 37) =     -5.33134  eV     1   --> A              
     e( 38 - 39) =     -5.24217  eV     2   -->   2 A              
     e( 40 - 40) =     -5.05499  eV     1   --> A              
     e( 41 - 42) =     -4.95275  eV     2   -->   2 A              
     e( 43 - 43) =     -4.85662  eV     1   --> A              
     e( 44 - 44) =     -4.44323  eV     1   --> A              
     e( 45 - 45) =     -4.36083  eV     1   --> A              
     e( 46 - 46) =     -4.36072  eV     1   --> A              
     e( 47 - 47) =     -4.01957  eV     1   --> A              
     e( 48 - 48) =     -3.94751  eV     1   --> A              
     e( 49 - 49) =     -3.94735  eV     1   --> A              
     e( 50 - 50) =     -3.94324  eV     1   --> A              
     e( 51 - 51) =     -3.76556  eV     1   --> A              
     e( 52 - 52) =     -3.76535  eV     1   --> A              
     e( 53 - 53) =     -3.47872  eV     1   --> A              
     e( 54 - 54) =     -3.38716  eV     1   --> A              
     e( 55 - 55) =     -3.30976  eV     1   --> A              
     e( 56 - 56) =     -3.30953  eV     1   --> A              
     e( 57 - 57) =     -3.15781  eV     1   --> A              
     e( 58 - 58) =     -2.97993  eV     1   --> A              
     e( 59 - 60) =     -2.96241  eV     2   -->   2 A              
     e( 61 - 61) =     -2.83704  eV     1   --> A              
     e( 62 - 62) =     -2.83692  eV     1   --> A              
     e( 63 - 63) =     -2.48625  eV     1   --> A              
     e( 64 - 64) =     -2.48605  eV     1   --> A              
     e( 65 - 65) =     -2.43864  eV     1   --> A              
     e( 66 - 67) =     -2.40725  eV     2   -->   2 A              
     e( 68 - 68) =     -2.38121  eV     1   --> A              
     e( 69 - 69) =     -2.30423  eV     1   --> A              
     e( 70 - 71) =     -2.29722  eV     2   -->   2 A              
     e( 72 - 72) =     -2.26769  eV     1   --> A              
     e( 73 - 74) =     -2.14926  eV     2   -->   2 A              
     e( 75 - 75) =     -1.53705  eV     1   --> A              
     e( 76 - 77) =     -1.18930  eV     2   -->   2 A              
     e( 78 - 78) =     -1.09244  eV     1   --> A              
     e( 79 - 79) =      0.17871  eV     1   --> A              
     e( 80 - 80) =      0.17894  eV     1   --> A              
     e( 81 - 81) =      0.97864  eV     1   --> A              
     e( 82 - 82) =      0.97878  eV     1   --> A              
     e( 83 - 83) =      1.34084  eV     1   --> A              
     e( 84 - 85) =      1.37323  eV     2   -->   2 A              
     e( 86 - 86) =      1.38209  eV     1   --> A              
     e( 87 - 87) =      1.42231  eV     1   --> A              
     e( 88 - 88) =      1.42241  eV     1   --> A              
     e( 89 - 90) =      1.56024  eV     2   -->   2 A              
     e( 91 - 91) =      1.59497  eV     1   --> A              
     e( 92 - 92) =      1.64960  eV     1   --> A              
     e( 93 - 93) =      1.84796  eV     1   --> A              
     e( 94 - 94) =      1.84812  eV     1   --> A              
     e( 95 - 96) =      2.01345  eV     2   -->   2 A              
     e( 97 - 98) =      2.22190  eV     2   -->   2 A              
     e( 99 - 99) =      2.41870  eV     1   --> A              
     e(100 -100) =      2.59354  eV     1   --> A              

 **************************************************************************

     BANDS        :  27m18.38s CPU  29m43.14s WALL


   This run was terminated on:  14:49:31   8Jun2022            

=------------------------------------------------------------------------------=
   JOB DONE.
=------------------------------------------------------------------------------=
