
     Program PWSCF v.6.5Max starts on 16May2022 at  3:41:18 

     This program is part of the open-source Quantum ESPRESSO suite
     for quantum simulation of materials; please cite
         "P. Giannozzi et al., J. Phys.:Condens. Matter 21 395502 (2009);
         "P. Giannozzi et al., J. Phys.:Condens. Matter 29 465901 (2017);
          URL http://www.quantum-espresso.org", 
     in publications or presentations arising from this work. More details at
     http://www.quantum-espresso.org/quote

     Parallel version (MPI), running on    16 processors

     MPI processes distributed on     1 nodes
     R & G space division:  proc/nbgrp/npool/nimage =      16
     Waiting for input...
     Reading input from standard input
Warning: card  &CELL ignored
Warning: card CELL_DYNAMICS='BFGS' ignored
Warning: card CELL_FACTOR=2.5 ignored
Warning: card CELL_DOFREE='2DXY' ignored
Warning: card / ignored

     Current dimensions of program PWSCF are:
     Max number of different atomic species (ntypx) = 10
     Max number of k-points (npk) =  40000
     Max angular momentum in pseudopotentials (lmaxx) =  3

     Atomic positions and unit cell read from directory:
     ./out/3x3_MoS2.save/                                                                                                                                                                                                                                            

               file Mo.pw-mt_fhi.UPF: wavefunction(s)  4f renormalized
               file S.pw-mt_fhi.UPF: wavefunction(s)  4f renormalized

     -------------------------------------------------
     Parameters for Dispersion (Grimme-D2) Correction:
     -------------------------------------------------
       atom      VdW radius       C_6     

        Mo         3.097        855.833
        S          3.180        193.230

     Subspace diagonalization in iterative solution of the eigenvalue problem:
     a serial algorithm will be used

     Message from routine setup:
     no reason to have ecutrho>4*ecutwfc

     Parallelization info
     --------------------
     sticks:   dense  smooth     PW     G-vecs:    dense   smooth      PW
     Min         781     312     85               138748    35106    5035
     Max         783     313     86               138753    35113    5044
     Sum       12507    4993   1369              2219997   561725   80633



     bravais-lattice index     =            0
     lattice parameter (alat)  =      17.5735  a.u.
     unit-cell volume          =    8944.6375 (a.u.)^3
     number of atoms/cell      =           26
     number of atomic types    =            2
     number of electrons       =       156.00
     number of Kohn-Sham states=          100
     kinetic-energy cutoff     =      60.0000  Ry
     charge density cutoff     =     600.0000  Ry
     Exchange-correlation= SLA-PW
                           (   1   4   0   0   0   0   0)

     celldm(1)=  17.573519  celldm(2)=   0.000000  celldm(3)=   0.000000
     celldm(4)=   0.000000  celldm(5)=   0.000000  celldm(6)=   0.000000

     crystal axes: (cart. coord. in units of alat)
               a(1) = (   0.988692  -0.000007   0.000000 )  
               a(2) = (  -0.494352   0.856229   0.000000 )  
               a(3) = (   0.000000   0.000000   1.946870 )  

     reciprocal axes: (cart. coord. in units 2 pi/alat)
               b(1) = (  1.011441  0.583965 -0.000000 )  
               b(2) = (  0.000008  1.167916 -0.000000 )  
               b(3) = ( -0.000000 -0.000000  0.513645 )  


     PseudoPot. # 1 for Mo read from file:
     ./Mo.pw-mt_fhi.UPF
     MD5 check sum: 39557091c5c29ab518dcc42d2770f0a9
     Pseudo is Norm-conserving, Zval =  6.0
     Generated using FHI98PP, converted with fhi2upf.x v.5.0.1
     Using radial grid of  541 points,  3 beta functions with: 
                l(1) =   0
                l(2) =   2
                l(3) =   3

     PseudoPot. # 2 for S  read from file:
     ./S.pw-mt_fhi.UPF
     MD5 check sum: 498597b413bac406373b42162ed9f1a5
     Pseudo is Norm-conserving, Zval =  6.0
     Generated using FHI98PP, converted with fhi2upf.x v.5.0.1
     Using radial grid of  501 points,  3 beta functions with: 
                l(1) =   0
                l(2) =   1
                l(3) =   3

     atomic species   valence    mass     pseudopotential
        Mo             6.00    95.95000     Mo( 1.00)
        S              6.00    32.06500     S ( 1.00)

     No symmetry found


                                    s                        frac. trans.

      isym =  1     identity                                     

 cryst.   s( 1) = (     1          0          0      )
                  (     0          1          0      )
                  (     0          0          1      )

 cart.    s( 1) = (  1.0000000  0.0000000  0.0000000 )
                  (  0.0000000  1.0000000  0.0000000 )
                  (  0.0000000  0.0000000  1.0000000 )


   Cartesian axes

     site n.     atom                  positions (alat units)
         1           Mo  tau(   1) = (   0.1647064   0.0967583   1.1993646  )
         2           S   tau(   2) = (   0.0042196   0.1954886   1.3667794  )
         3           S   tau(   3) = (  -0.0022711   0.1911741   1.0332113  )
         4           Mo  tau(   4) = (   0.0049277   0.3825437   1.1964482  )
         5           S   tau(   5) = (  -0.1574222   0.4754597   1.3667727  )
         6           S   tau(   6) = (  -0.1643937   0.4719940   1.0331982  )
         7           Mo  tau(   7) = (  -0.1626858   0.6638053   1.1993550  )
         8           S   tau(   8) = (  -0.3296430   0.7601981   1.3650009  )
         9           S   tau(   9) = (  -0.3296502   0.7602023   1.0338118  )
        10           Mo  tau(  10) = (   0.4943245   0.0942675   1.2033826  )
        11           S   tau(  11) = (   0.3251986   0.1954752   1.3667824  )
        12           S   tau(  12) = (   0.3316793   0.1911732   1.0332058  )
        13           Mo  tau(  13) = (   0.3244913   0.3825334   1.1964554  )
        14           S   tau(  14) = (   0.1647169   0.4747793   1.0279647  )
        15           Mo  tau(  15) = (   0.1647006   0.6592786   1.1964482  )
        16           S   tau(  16) = (   0.0030581   0.7534197   1.3667726  )
        17           S   tau(  17) = (   0.0025738   0.7611900   1.0331982  )
        18           Mo  tau(  18) = (   0.8237765   0.0942710   1.2033927  )
        19           S   tau(  19) = (   0.6590447   0.1893790   1.3713343  )
        20           S   tau(  20) = (   0.6590542   0.1893735   1.0377749  )
        21           Mo  tau(  21) = (   0.6590535   0.3795866   1.2033827  )
        22           S   tau(  22) = (   0.4868421   0.4754501   1.3667824  )
        23           S   tau(  23) = (   0.4938082   0.4719886   1.0332059  )
        24           Mo  tau(  24) = (   0.4920874   0.6637989   1.1993646  )
        25           S   tau(  25) = (   0.3263410   0.7534193   1.3667794  )
        26           S   tau(  26) = (   0.3268321   0.7611977   1.0332113  )

   Crystallographic axes

     site n.     atom                  positions (cryst. coord.)
         1           Mo  tau(   1) = (  0.2230942  0.1130069  0.6160476  )
         2           S   tau(   2) = (  0.1184264  0.2283144  0.7020393  )
         3           S   tau(   3) = (  0.1093419  0.2232753  0.5307037  )
         4           Mo  tau(   4) = (  0.2283763  0.4467790  0.6145496  )
         5           S   tau(   5) = (  0.1184286  0.5552958  0.7020359  )
         6           S   tau(   6) = (  0.1093535  0.5512480  0.5306970  )
         7           Mo  tau(   7) = (  0.2230921  0.7752676  0.6160426  )
         8           S   tau(   8) = (  0.1105148  0.8878449  0.7011258  )
         9           S   tau(   9) = (  0.1105099  0.8878498  0.5310122  )
        10           Mo  tau(  10) = (  0.5550290  0.1101006  0.6181114  )
        11           S   tau(  11) = (  0.4430699  0.2283013  0.7020408  )
        12           S   tau(  12) = (  0.4471125  0.2232770  0.5307010  )
        13           Mo  tau(  13) = (  0.5515901  0.4467697  0.6145532  )
        14           S   tau(  14) = (  0.4438560  0.5545037  0.5280089  )
        15           Mo  tau(  15) = (  0.5515807  0.7699834  0.6145496  )
        16           S   tau(  16) = (  0.4430640  0.8799311  0.7020358  )
        17           S   tau(  17) = (  0.4471117  0.8890062  0.5306970  )
        18           Mo  tau(  18) = (  0.8882523  0.1101075  0.6181166  )
        19           S   tau(  19) = (  0.7771755  0.2211842  0.7043789  )
        20           S   tau(  20) = (  0.7771820  0.2211778  0.5330478  )
        21           Mo  tau(  21) = (  0.8882591  0.4433307  0.6181114  )
        22           S   tau(  22) = (  0.7700584  0.5552899  0.7020408  )
        23           S   tau(  23) = (  0.7750828  0.5512472  0.5307010  )
        24           Mo  tau(  24) = (  0.8853528  0.7752655  0.6160476  )
        25           S   tau(  25) = (  0.7700453  0.8799333  0.7020393  )
        26           S   tau(  26) = (  0.7750844  0.8890178  0.5307037  )

     number of k points=   452
                       cart. coord. in units 2pi/alat
        k(    1) = (   0.0000000   0.0000000   0.0000000), wk =   0.0022222
        k(    2) = (   0.0000003   0.0389305   0.0000000), wk =   0.0044444
        k(    3) = (   0.0000005   0.0778611   0.0000000), wk =   0.0044444
        k(    4) = (   0.0000008   0.1167916   0.0000000), wk =   0.0044444
        k(    5) = (   0.0000011   0.1557222   0.0000000), wk =   0.0044444
        k(    6) = (   0.0000014   0.1946527   0.0000000), wk =   0.0044444
        k(    7) = (   0.0000016   0.2335832   0.0000000), wk =   0.0044444
        k(    8) = (   0.0000019   0.2725138   0.0000000), wk =   0.0044444
        k(    9) = (   0.0000022   0.3114443   0.0000000), wk =   0.0044444
        k(   10) = (   0.0000025   0.3503748   0.0000000), wk =   0.0044444
        k(   11) = (   0.0000027   0.3893054   0.0000000), wk =   0.0044444
        k(   12) = (   0.0000030   0.4282359   0.0000000), wk =   0.0044444
        k(   13) = (   0.0000033   0.4671665   0.0000000), wk =   0.0044444
        k(   14) = (   0.0000036   0.5060970   0.0000000), wk =   0.0044444
        k(   15) = (   0.0000038   0.5450275   0.0000000), wk =   0.0044444
        k(   16) = (  -0.0000041  -0.5839581   0.0000000), wk =   0.0022222
        k(   17) = (   0.0337150   0.0583960   0.0000000), wk =   0.0044444
        k(   18) = (   0.0337152   0.0973266   0.0000000), wk =   0.0044444
        k(   19) = (   0.0337155   0.1362571   0.0000000), wk =   0.0044444
        k(   20) = (   0.0337158   0.1751877   0.0000000), wk =   0.0044444
        k(   21) = (   0.0337161   0.2141182   0.0000000), wk =   0.0044444
        k(   22) = (   0.0337163   0.2530487   0.0000000), wk =   0.0044444
        k(   23) = (   0.0337166   0.2919793   0.0000000), wk =   0.0044444
        k(   24) = (   0.0337169   0.3309098   0.0000000), wk =   0.0044444
        k(   25) = (   0.0337172   0.3698404   0.0000000), wk =   0.0044444
        k(   26) = (   0.0337174   0.4087709   0.0000000), wk =   0.0044444
        k(   27) = (   0.0337177   0.4477014   0.0000000), wk =   0.0044444
        k(   28) = (   0.0337180   0.4866320   0.0000000), wk =   0.0044444
        k(   29) = (   0.0337183   0.5255625   0.0000000), wk =   0.0044444
        k(   30) = (   0.0337185   0.5644930   0.0000000), wk =   0.0044444
        k(   31) = (   0.0337106  -0.5644926   0.0000000), wk =   0.0044444
        k(   32) = (   0.0337109  -0.5255620   0.0000000), wk =   0.0044444
        k(   33) = (   0.0337111  -0.4866315   0.0000000), wk =   0.0044444
        k(   34) = (   0.0337114  -0.4477010   0.0000000), wk =   0.0044444
        k(   35) = (   0.0337117  -0.4087704   0.0000000), wk =   0.0044444
        k(   36) = (   0.0337120  -0.3698399   0.0000000), wk =   0.0044444
        k(   37) = (   0.0337122  -0.3309093   0.0000000), wk =   0.0044444
        k(   38) = (   0.0337125  -0.2919788   0.0000000), wk =   0.0044444
        k(   39) = (   0.0337128  -0.2530483   0.0000000), wk =   0.0044444
        k(   40) = (   0.0337131  -0.2141177   0.0000000), wk =   0.0044444
        k(   41) = (   0.0337133  -0.1751872   0.0000000), wk =   0.0044444
        k(   42) = (   0.0337136  -0.1362566   0.0000000), wk =   0.0044444
        k(   43) = (   0.0337139  -0.0973261   0.0000000), wk =   0.0044444
        k(   44) = (   0.0337141  -0.0583956   0.0000000), wk =   0.0044444
        k(   45) = (   0.0337144  -0.0194650   0.0000000), wk =   0.0044444
        k(   46) = (   0.0674299   0.1167921   0.0000000), wk =   0.0044444
        k(   47) = (   0.0674302   0.1557226   0.0000000), wk =   0.0044444
        k(   48) = (   0.0674305   0.1946532   0.0000000), wk =   0.0044444
        k(   49) = (   0.0674308   0.2335837   0.0000000), wk =   0.0044444
        k(   50) = (   0.0674310   0.2725142   0.0000000), wk =   0.0044444
        k(   51) = (   0.0674313   0.3114448   0.0000000), wk =   0.0044444
        k(   52) = (   0.0674316   0.3503753   0.0000000), wk =   0.0044444
        k(   53) = (   0.0674319   0.3893059   0.0000000), wk =   0.0044444
        k(   54) = (   0.0674321   0.4282364   0.0000000), wk =   0.0044444
        k(   55) = (   0.0674324   0.4671669   0.0000000), wk =   0.0044444
        k(   56) = (   0.0674327   0.5060975   0.0000000), wk =   0.0044444
        k(   57) = (   0.0674330   0.5450280   0.0000000), wk =   0.0044444
        k(   58) = (   0.0674332   0.5839586   0.0000000), wk =   0.0044444
        k(   59) = (   0.0674253  -0.5450271   0.0000000), wk =   0.0044444
        k(   60) = (   0.0674256  -0.5060965   0.0000000), wk =   0.0044444
        k(   61) = (   0.0674258  -0.4671660   0.0000000), wk =   0.0044444
        k(   62) = (   0.0674261  -0.4282354   0.0000000), wk =   0.0044444
        k(   63) = (   0.0674264  -0.3893049   0.0000000), wk =   0.0044444
        k(   64) = (   0.0674267  -0.3503744   0.0000000), wk =   0.0044444
        k(   65) = (   0.0674269  -0.3114438   0.0000000), wk =   0.0044444
        k(   66) = (   0.0674272  -0.2725133   0.0000000), wk =   0.0044444
        k(   67) = (   0.0674275  -0.2335828   0.0000000), wk =   0.0044444
        k(   68) = (   0.0674278  -0.1946522   0.0000000), wk =   0.0044444
        k(   69) = (   0.0674280  -0.1557217   0.0000000), wk =   0.0044444
        k(   70) = (   0.0674283  -0.1167911   0.0000000), wk =   0.0044444
        k(   71) = (   0.0674286  -0.0778606   0.0000000), wk =   0.0044444
        k(   72) = (   0.0674288  -0.0389301   0.0000000), wk =   0.0044444
        k(   73) = (   0.1011449   0.1751881   0.0000000), wk =   0.0044444
        k(   74) = (   0.1011452   0.2141187   0.0000000), wk =   0.0044444
        k(   75) = (   0.1011455   0.2530492   0.0000000), wk =   0.0044444
        k(   76) = (   0.1011457   0.2919798   0.0000000), wk =   0.0044444
        k(   77) = (   0.1011460   0.3309103   0.0000000), wk =   0.0044444
        k(   78) = (   0.1011463   0.3698408   0.0000000), wk =   0.0044444
        k(   79) = (   0.1011466   0.4087714   0.0000000), wk =   0.0044444
        k(   80) = (   0.1011468   0.4477019   0.0000000), wk =   0.0044444
        k(   81) = (   0.1011471   0.4866324   0.0000000), wk =   0.0044444
        k(   82) = (   0.1011474   0.5255630   0.0000000), wk =   0.0044444
        k(   83) = (   0.1011477   0.5644935   0.0000000), wk =   0.0044444
        k(   84) = (   0.1011479   0.6034241   0.0000000), wk =   0.0044444
        k(   85) = (   0.1011400  -0.5255616   0.0000000), wk =   0.0044444
        k(   86) = (   0.1011403  -0.4866310   0.0000000), wk =   0.0044444
        k(   87) = (   0.1011405  -0.4477005   0.0000000), wk =   0.0044444
        k(   88) = (   0.1011408  -0.4087699   0.0000000), wk =   0.0044444
        k(   89) = (   0.1011411  -0.3698394   0.0000000), wk =   0.0044444
        k(   90) = (   0.1011414  -0.3309089   0.0000000), wk =   0.0044444
        k(   91) = (   0.1011416  -0.2919783   0.0000000), wk =   0.0044444
        k(   92) = (   0.1011419  -0.2530478   0.0000000), wk =   0.0044444
        k(   93) = (   0.1011422  -0.2141172   0.0000000), wk =   0.0044444
        k(   94) = (   0.1011424  -0.1751867   0.0000000), wk =   0.0044444
        k(   95) = (   0.1011427  -0.1362562   0.0000000), wk =   0.0044444
        k(   96) = (   0.1011430  -0.0973256   0.0000000), wk =   0.0044444
        k(   97) = (   0.1011433  -0.0583951   0.0000000), wk =   0.0044444
        k(   98) = (   0.1348599   0.2335842   0.0000000), wk =   0.0044444
        k(   99) = (   0.1348602   0.2725147   0.0000000), wk =   0.0044444
        k(  100) = (   0.1348604   0.3114453   0.0000000), wk =   0.0044444
        k(  101) = (   0.1348607   0.3503758   0.0000000), wk =   0.0044444
        k(  102) = (   0.1348610   0.3893063   0.0000000), wk =   0.0044444
        k(  103) = (   0.1348613   0.4282369   0.0000000), wk =   0.0044444
        k(  104) = (   0.1348615   0.4671674   0.0000000), wk =   0.0044444
        k(  105) = (   0.1348618   0.5060980   0.0000000), wk =   0.0044444
        k(  106) = (   0.1348621   0.5450285   0.0000000), wk =   0.0044444
        k(  107) = (   0.1348624   0.5839590   0.0000000), wk =   0.0044444
        k(  108) = (   0.1348626   0.6228896   0.0000000), wk =   0.0044444
        k(  109) = (   0.1348547  -0.5060961   0.0000000), wk =   0.0044444
        k(  110) = (   0.1348550  -0.4671655   0.0000000), wk =   0.0044444
        k(  111) = (   0.1348552  -0.4282350   0.0000000), wk =   0.0044444
        k(  112) = (   0.1348555  -0.3893044   0.0000000), wk =   0.0044444
        k(  113) = (   0.1348558  -0.3503739   0.0000000), wk =   0.0044444
        k(  114) = (   0.1348560  -0.3114434   0.0000000), wk =   0.0044444
        k(  115) = (   0.1348563  -0.2725128   0.0000000), wk =   0.0044444
        k(  116) = (   0.1348566  -0.2335823   0.0000000), wk =   0.0044444
        k(  117) = (   0.1348569  -0.1946517   0.0000000), wk =   0.0044444
        k(  118) = (   0.1348571  -0.1557212   0.0000000), wk =   0.0044444
        k(  119) = (   0.1348574  -0.1167907   0.0000000), wk =   0.0044444
        k(  120) = (   0.1348577  -0.0778601   0.0000000), wk =   0.0044444
        k(  121) = (   0.1685749   0.2919802   0.0000000), wk =   0.0044444
        k(  122) = (   0.1685751   0.3309108   0.0000000), wk =   0.0044444
        k(  123) = (   0.1685754   0.3698413   0.0000000), wk =   0.0044444
        k(  124) = (   0.1685757   0.4087718   0.0000000), wk =   0.0044444
        k(  125) = (   0.1685760   0.4477024   0.0000000), wk =   0.0044444
        k(  126) = (   0.1685762   0.4866329   0.0000000), wk =   0.0044444
        k(  127) = (   0.1685765   0.5255635   0.0000000), wk =   0.0044444
        k(  128) = (   0.1685768   0.5644940   0.0000000), wk =   0.0044444
        k(  129) = (   0.1685771   0.6034245   0.0000000), wk =   0.0044444
        k(  130) = (   0.1685773   0.6423551   0.0000000), wk =   0.0044444
        k(  131) = (   0.1685694  -0.4866305   0.0000000), wk =   0.0044444
        k(  132) = (   0.1685696  -0.4477000   0.0000000), wk =   0.0044444
        k(  133) = (   0.1685699  -0.4087695   0.0000000), wk =   0.0044444
        k(  134) = (   0.1685702  -0.3698389   0.0000000), wk =   0.0044444
        k(  135) = (   0.1685705  -0.3309084   0.0000000), wk =   0.0044444
        k(  136) = (   0.1685707  -0.2919778   0.0000000), wk =   0.0044444
        k(  137) = (   0.1685710  -0.2530473   0.0000000), wk =   0.0044444
        k(  138) = (   0.1685713  -0.2141168   0.0000000), wk =   0.0044444
        k(  139) = (   0.1685716  -0.1751862   0.0000000), wk =   0.0044444
        k(  140) = (   0.1685718  -0.1362557   0.0000000), wk =   0.0044444
        k(  141) = (   0.1685721  -0.0973252   0.0000000), wk =   0.0044444
        k(  142) = (   0.2022898   0.3503763   0.0000000), wk =   0.0044444
        k(  143) = (   0.2022901   0.3893068   0.0000000), wk =   0.0044444
        k(  144) = (   0.2022904   0.4282374   0.0000000), wk =   0.0044444
        k(  145) = (   0.2022907   0.4671679   0.0000000), wk =   0.0044444
        k(  146) = (   0.2022909   0.5060984   0.0000000), wk =   0.0044444
        k(  147) = (   0.2022912   0.5450290   0.0000000), wk =   0.0044444
        k(  148) = (   0.2022915   0.5839595   0.0000000), wk =   0.0044444
        k(  149) = (   0.2022918   0.6228900   0.0000000), wk =   0.0044444
        k(  150) = (   0.2022920   0.6618206   0.0000000), wk =   0.0044444
        k(  151) = (   0.2022841  -0.4671650   0.0000000), wk =   0.0044444
        k(  152) = (   0.2022843  -0.4282345   0.0000000), wk =   0.0044444
        k(  153) = (   0.2022846  -0.3893040   0.0000000), wk =   0.0044444
        k(  154) = (   0.2022849  -0.3503734   0.0000000), wk =   0.0044444
        k(  155) = (   0.2022852  -0.3114429   0.0000000), wk =   0.0044444
        k(  156) = (   0.2022854  -0.2725123   0.0000000), wk =   0.0044444
        k(  157) = (   0.2022857  -0.2335818   0.0000000), wk =   0.0044444
        k(  158) = (   0.2022860  -0.1946513   0.0000000), wk =   0.0044444
        k(  159) = (   0.2022863  -0.1557207   0.0000000), wk =   0.0044444
        k(  160) = (   0.2022865  -0.1167902   0.0000000), wk =   0.0044444
        k(  161) = (   0.2360048   0.4087723   0.0000000), wk =   0.0044444
        k(  162) = (   0.2360051   0.4477029   0.0000000), wk =   0.0044444
        k(  163) = (   0.2360054   0.4866334   0.0000000), wk =   0.0044444
        k(  164) = (   0.2360056   0.5255639   0.0000000), wk =   0.0044444
        k(  165) = (   0.2360059   0.5644945   0.0000000), wk =   0.0044444
        k(  166) = (   0.2360062   0.6034250   0.0000000), wk =   0.0044444
        k(  167) = (   0.2360065   0.6423556   0.0000000), wk =   0.0044444
        k(  168) = (   0.2360067   0.6812861   0.0000000), wk =   0.0044444
        k(  169) = (   0.2359988  -0.4476995   0.0000000), wk =   0.0044444
        k(  170) = (   0.2359990  -0.4087690   0.0000000), wk =   0.0044444
        k(  171) = (   0.2359993  -0.3698385   0.0000000), wk =   0.0044444
        k(  172) = (   0.2359996  -0.3309079   0.0000000), wk =   0.0044444
        k(  173) = (   0.2359999  -0.2919774   0.0000000), wk =   0.0044444
        k(  174) = (   0.2360001  -0.2530468   0.0000000), wk =   0.0044444
        k(  175) = (   0.2360004  -0.2141163   0.0000000), wk =   0.0044444
        k(  176) = (   0.2360007  -0.1751858   0.0000000), wk =   0.0044444
        k(  177) = (   0.2360010  -0.1362552   0.0000000), wk =   0.0044444
        k(  178) = (   0.2697198   0.4671684   0.0000000), wk =   0.0044444
        k(  179) = (   0.2697201   0.5060989   0.0000000), wk =   0.0044444
        k(  180) = (   0.2697203   0.5450294   0.0000000), wk =   0.0044444
        k(  181) = (   0.2697206   0.5839600   0.0000000), wk =   0.0044444
        k(  182) = (   0.2697209   0.6228905   0.0000000), wk =   0.0044444
        k(  183) = (   0.2697212   0.6618211   0.0000000), wk =   0.0044444
        k(  184) = (   0.2697214   0.7007516   0.0000000), wk =   0.0044444
        k(  185) = (   0.2697135  -0.4282340   0.0000000), wk =   0.0044444
        k(  186) = (   0.2697137  -0.3893035   0.0000000), wk =   0.0044444
        k(  187) = (   0.2697140  -0.3503729   0.0000000), wk =   0.0044444
        k(  188) = (   0.2697143  -0.3114424   0.0000000), wk =   0.0044444
        k(  189) = (   0.2697146  -0.2725119   0.0000000), wk =   0.0044444
        k(  190) = (   0.2697148  -0.2335813   0.0000000), wk =   0.0044444
        k(  191) = (   0.2697151  -0.1946508   0.0000000), wk =   0.0044444
        k(  192) = (   0.2697154  -0.1557203   0.0000000), wk =   0.0044444
        k(  193) = (   0.3034348   0.5255644   0.0000000), wk =   0.0044444
        k(  194) = (   0.3034350   0.5644950   0.0000000), wk =   0.0044444
        k(  195) = (   0.3034353   0.6034255   0.0000000), wk =   0.0044444
        k(  196) = (   0.3034356   0.6423560   0.0000000), wk =   0.0044444
        k(  197) = (   0.3034359   0.6812866   0.0000000), wk =   0.0044444
        k(  198) = (   0.3034361   0.7202171   0.0000000), wk =   0.0044444
        k(  199) = (   0.3034282  -0.4087685   0.0000000), wk =   0.0044444
        k(  200) = (   0.3034284  -0.3698380   0.0000000), wk =   0.0044444
        k(  201) = (   0.3034287  -0.3309074   0.0000000), wk =   0.0044444
        k(  202) = (   0.3034290  -0.2919769   0.0000000), wk =   0.0044444
        k(  203) = (   0.3034293  -0.2530464   0.0000000), wk =   0.0044444
        k(  204) = (   0.3034295  -0.2141158   0.0000000), wk =   0.0044444
        k(  205) = (   0.3034298  -0.1751853   0.0000000), wk =   0.0044444
        k(  206) = (   0.3371497   0.5839605   0.0000000), wk =   0.0044444
        k(  207) = (   0.3371500   0.6228910   0.0000000), wk =   0.0044444
        k(  208) = (   0.3371503   0.6618215   0.0000000), wk =   0.0044444
        k(  209) = (   0.3371506   0.7007521   0.0000000), wk =   0.0044444
        k(  210) = (   0.3371508   0.7396826   0.0000000), wk =   0.0044444
        k(  211) = (   0.3371429  -0.3893030   0.0000000), wk =   0.0044444
        k(  212) = (   0.3371431  -0.3503725   0.0000000), wk =   0.0044444
        k(  213) = (   0.3371434  -0.3114419   0.0000000), wk =   0.0044444
        k(  214) = (   0.3371437  -0.2725114   0.0000000), wk =   0.0044444
        k(  215) = (   0.3371440  -0.2335809   0.0000000), wk =   0.0044444
        k(  216) = (   0.3371442  -0.1946503   0.0000000), wk =   0.0044444
        k(  217) = (   0.3708647   0.6423565   0.0000000), wk =   0.0044444
        k(  218) = (   0.3708650   0.6812870   0.0000000), wk =   0.0044444
        k(  219) = (   0.3708653   0.7202176   0.0000000), wk =   0.0044444
        k(  220) = (   0.3708655   0.7591481   0.0000000), wk =   0.0044444
        k(  221) = (   0.3708576  -0.3698375   0.0000000), wk =   0.0044444
        k(  222) = (   0.3708578  -0.3309070   0.0000000), wk =   0.0044444
        k(  223) = (   0.3708581  -0.2919764   0.0000000), wk =   0.0044444
        k(  224) = (   0.3708584  -0.2530459   0.0000000), wk =   0.0044444
        k(  225) = (   0.3708587  -0.2141153   0.0000000), wk =   0.0044444
        k(  226) = (   0.4045797   0.7007525   0.0000000), wk =   0.0044444
        k(  227) = (   0.4045800   0.7396831   0.0000000), wk =   0.0044444
        k(  228) = (   0.4045802   0.7786136   0.0000000), wk =   0.0044444
        k(  229) = (   0.4045723  -0.3503720   0.0000000), wk =   0.0044444
        k(  230) = (   0.4045725  -0.3114415   0.0000000), wk =   0.0044444
        k(  231) = (   0.4045728  -0.2725109   0.0000000), wk =   0.0044444
        k(  232) = (   0.4045731  -0.2335804   0.0000000), wk =   0.0044444
        k(  233) = (   0.4382946   0.7591486   0.0000000), wk =   0.0044444
        k(  234) = (   0.4382949   0.7980791   0.0000000), wk =   0.0044444
        k(  235) = (   0.4382870  -0.3309065   0.0000000), wk =   0.0044444
        k(  236) = (   0.4382872  -0.2919759   0.0000000), wk =   0.0044444
        k(  237) = (   0.4382875  -0.2530454   0.0000000), wk =   0.0044444
        k(  238) = (   0.4720096   0.8175446   0.0000000), wk =   0.0044444
        k(  239) = (   0.4720017  -0.3114410   0.0000000), wk =   0.0044444
        k(  240) = (   0.4720019  -0.2725104   0.0000000), wk =   0.0044444
        k(  241) = (  -0.5057246  -0.8759407   0.0000000), wk =   0.0022222
        k(  242) = (  -0.0337147  -0.0194655   0.0000000), wk =   0.0044444
        k(  243) = (  -0.0674294  -0.0389310   0.0000000), wk =   0.0044444
        k(  244) = (  -0.1011441  -0.0583965   0.0000000), wk =   0.0044444
        k(  245) = (  -0.1348588  -0.0778620   0.0000000), wk =   0.0044444
        k(  246) = (  -0.1685735  -0.0973275   0.0000000), wk =   0.0044444
        k(  247) = (  -0.2022882  -0.1167930   0.0000000), wk =   0.0044444
        k(  248) = (  -0.2360029  -0.1362586   0.0000000), wk =   0.0044444
        k(  249) = (  -0.2697176  -0.1557241   0.0000000), wk =   0.0044444
        k(  250) = (  -0.3034323  -0.1751896   0.0000000), wk =   0.0044444
        k(  251) = (  -0.3371470  -0.1946551   0.0000000), wk =   0.0044444
        k(  252) = (  -0.3708617  -0.2141206   0.0000000), wk =   0.0044444
        k(  253) = (  -0.4045764  -0.2335861   0.0000000), wk =   0.0044444
        k(  254) = (  -0.4382911  -0.2530516   0.0000000), wk =   0.0044444
        k(  255) = (  -0.4720058  -0.2725171   0.0000000), wk =   0.0044444
        k(  256) = (   0.5057205   0.2919826   0.0000000), wk =   0.0022222
        k(  257) = (  -0.0674297  -0.0778616   0.0000000), wk =   0.0044444
        k(  258) = (  -0.1011444  -0.0973271   0.0000000), wk =   0.0044444
        k(  259) = (  -0.1348591  -0.1167926   0.0000000), wk =   0.0044444
        k(  260) = (  -0.1685738  -0.1362581   0.0000000), wk =   0.0044444
        k(  261) = (  -0.2022885  -0.1557236   0.0000000), wk =   0.0044444
        k(  262) = (  -0.2360032  -0.1751891   0.0000000), wk =   0.0044444
        k(  263) = (  -0.2697179  -0.1946546   0.0000000), wk =   0.0044444
        k(  264) = (  -0.3034326  -0.2141201   0.0000000), wk =   0.0044444
        k(  265) = (  -0.3371473  -0.2335856   0.0000000), wk =   0.0044444
        k(  266) = (  -0.3708620  -0.2530511   0.0000000), wk =   0.0044444
        k(  267) = (  -0.4045767  -0.2725166   0.0000000), wk =   0.0044444
        k(  268) = (  -0.4382914  -0.2919821   0.0000000), wk =   0.0044444
        k(  269) = (  -0.4720061  -0.3114476   0.0000000), wk =   0.0044444
        k(  270) = (   0.5057202   0.2530521   0.0000000), wk =   0.0044444
        k(  271) = (   0.4720055   0.2335866   0.0000000), wk =   0.0044444
        k(  272) = (   0.4382908   0.2141211   0.0000000), wk =   0.0044444
        k(  273) = (   0.4045761   0.1946555   0.0000000), wk =   0.0044444
        k(  274) = (   0.3708614   0.1751900   0.0000000), wk =   0.0044444
        k(  275) = (   0.3371467   0.1557245   0.0000000), wk =   0.0044444
        k(  276) = (   0.3034320   0.1362590   0.0000000), wk =   0.0044444
        k(  277) = (   0.2697173   0.1167935   0.0000000), wk =   0.0044444
        k(  278) = (   0.2360026   0.0973280   0.0000000), wk =   0.0044444
        k(  279) = (   0.2022879   0.0778625   0.0000000), wk =   0.0044444
        k(  280) = (   0.1685732   0.0583970   0.0000000), wk =   0.0044444
        k(  281) = (   0.1348585   0.0389315   0.0000000), wk =   0.0044444
        k(  282) = (   0.1011438   0.0194660   0.0000000), wk =   0.0044444
        k(  283) = (   0.0674291   0.0000005   0.0000000), wk =   0.0044444
        k(  284) = (  -0.1011446  -0.1362576   0.0000000), wk =   0.0044444
        k(  285) = (  -0.1348593  -0.1557231   0.0000000), wk =   0.0044444
        k(  286) = (  -0.1685740  -0.1751886   0.0000000), wk =   0.0044444
        k(  287) = (  -0.2022887  -0.1946541   0.0000000), wk =   0.0044444
        k(  288) = (  -0.2360034  -0.2141196   0.0000000), wk =   0.0044444
        k(  289) = (  -0.2697181  -0.2335851   0.0000000), wk =   0.0044444
        k(  290) = (  -0.3034328  -0.2530506   0.0000000), wk =   0.0044444
        k(  291) = (  -0.3371475  -0.2725161   0.0000000), wk =   0.0044444
        k(  292) = (  -0.3708622  -0.2919817   0.0000000), wk =   0.0044444
        k(  293) = (  -0.4045769  -0.3114472   0.0000000), wk =   0.0044444
        k(  294) = (  -0.4382916  -0.3309127   0.0000000), wk =   0.0044444
        k(  295) = (  -0.4720063  -0.3503782   0.0000000), wk =   0.0044444
        k(  296) = (   0.5057199   0.2141215   0.0000000), wk =   0.0044444
        k(  297) = (   0.4720052   0.1946560   0.0000000), wk =   0.0044444
        k(  298) = (   0.4382905   0.1751905   0.0000000), wk =   0.0044444
        k(  299) = (   0.4045758   0.1557250   0.0000000), wk =   0.0044444
        k(  300) = (   0.3708611   0.1362595   0.0000000), wk =   0.0044444
        k(  301) = (   0.3371464   0.1167940   0.0000000), wk =   0.0044444
        k(  302) = (   0.3034317   0.0973285   0.0000000), wk =   0.0044444
        k(  303) = (   0.2697170   0.0778630   0.0000000), wk =   0.0044444
        k(  304) = (   0.2360023   0.0583975   0.0000000), wk =   0.0044444
        k(  305) = (   0.2022876   0.0389320   0.0000000), wk =   0.0044444
        k(  306) = (   0.1685729   0.0194665   0.0000000), wk =   0.0044444
        k(  307) = (   0.1348582   0.0000010   0.0000000), wk =   0.0044444
        k(  308) = (   0.1011435  -0.0194646   0.0000000), wk =   0.0044444
        k(  309) = (  -0.1348596  -0.1946536   0.0000000), wk =   0.0044444
        k(  310) = (  -0.1685743  -0.2141192   0.0000000), wk =   0.0044444
        k(  311) = (  -0.2022890  -0.2335847   0.0000000), wk =   0.0044444
        k(  312) = (  -0.2360037  -0.2530502   0.0000000), wk =   0.0044444
        k(  313) = (  -0.2697184  -0.2725157   0.0000000), wk =   0.0044444
        k(  314) = (  -0.3034331  -0.2919812   0.0000000), wk =   0.0044444
        k(  315) = (  -0.3371478  -0.3114467   0.0000000), wk =   0.0044444
        k(  316) = (  -0.3708625  -0.3309122   0.0000000), wk =   0.0044444
        k(  317) = (  -0.4045772  -0.3503777   0.0000000), wk =   0.0044444
        k(  318) = (  -0.4382919  -0.3698432   0.0000000), wk =   0.0044444
        k(  319) = (  -0.4720066  -0.3893087   0.0000000), wk =   0.0044444
        k(  320) = (   0.5057197   0.1751910   0.0000000), wk =   0.0044444
        k(  321) = (   0.4720050   0.1557255   0.0000000), wk =   0.0044444
        k(  322) = (   0.4382903   0.1362600   0.0000000), wk =   0.0044444
        k(  323) = (   0.4045756   0.1167945   0.0000000), wk =   0.0044444
        k(  324) = (   0.3708609   0.0973290   0.0000000), wk =   0.0044444
        k(  325) = (   0.3371462   0.0778635   0.0000000), wk =   0.0044444
        k(  326) = (   0.3034315   0.0583979   0.0000000), wk =   0.0044444
        k(  327) = (   0.2697168   0.0389324   0.0000000), wk =   0.0044444
        k(  328) = (   0.2360021   0.0194669   0.0000000), wk =   0.0044444
        k(  329) = (   0.2022874   0.0000014   0.0000000), wk =   0.0044444
        k(  330) = (   0.1685727  -0.0194641   0.0000000), wk =   0.0044444
        k(  331) = (   0.1348580  -0.0389296   0.0000000), wk =   0.0044444
        k(  332) = (  -0.1685746  -0.2530497   0.0000000), wk =   0.0044444
        k(  333) = (  -0.2022893  -0.2725152   0.0000000), wk =   0.0044444
        k(  334) = (  -0.2360040  -0.2919807   0.0000000), wk =   0.0044444
        k(  335) = (  -0.2697187  -0.3114462   0.0000000), wk =   0.0044444
        k(  336) = (  -0.3034334  -0.3309117   0.0000000), wk =   0.0044444
        k(  337) = (  -0.3371481  -0.3503772   0.0000000), wk =   0.0044444
        k(  338) = (  -0.3708628  -0.3698427   0.0000000), wk =   0.0044444
        k(  339) = (  -0.4045775  -0.3893082   0.0000000), wk =   0.0044444
        k(  340) = (  -0.4382922  -0.4087737   0.0000000), wk =   0.0044444
        k(  341) = (  -0.4720069  -0.4282393   0.0000000), wk =   0.0044444
        k(  342) = (   0.5057194   0.1362605   0.0000000), wk =   0.0044444
        k(  343) = (   0.4720047   0.1167949   0.0000000), wk =   0.0044444
        k(  344) = (   0.4382900   0.0973294   0.0000000), wk =   0.0044444
        k(  345) = (   0.4045753   0.0778639   0.0000000), wk =   0.0044444
        k(  346) = (   0.3708606   0.0583984   0.0000000), wk =   0.0044444
        k(  347) = (   0.3371459   0.0389329   0.0000000), wk =   0.0044444
        k(  348) = (   0.3034312   0.0194674   0.0000000), wk =   0.0044444
        k(  349) = (   0.2697165   0.0000019   0.0000000), wk =   0.0044444
        k(  350) = (   0.2360018  -0.0194636   0.0000000), wk =   0.0044444
        k(  351) = (   0.2022871  -0.0389291   0.0000000), wk =   0.0044444
        k(  352) = (   0.1685724  -0.0583946   0.0000000), wk =   0.0044444
        k(  353) = (  -0.2022896  -0.3114457   0.0000000), wk =   0.0044444
        k(  354) = (  -0.2360043  -0.3309112   0.0000000), wk =   0.0044444
        k(  355) = (  -0.2697190  -0.3503768   0.0000000), wk =   0.0044444
        k(  356) = (  -0.3034337  -0.3698423   0.0000000), wk =   0.0044444
        k(  357) = (  -0.3371484  -0.3893078   0.0000000), wk =   0.0044444
        k(  358) = (  -0.3708631  -0.4087733   0.0000000), wk =   0.0044444
        k(  359) = (  -0.4045778  -0.4282388   0.0000000), wk =   0.0044444
        k(  360) = (  -0.4382925  -0.4477043   0.0000000), wk =   0.0044444
        k(  361) = (  -0.4720072  -0.4671698   0.0000000), wk =   0.0044444
        k(  362) = (   0.5057191   0.0973299   0.0000000), wk =   0.0044444
        k(  363) = (   0.4720044   0.0778644   0.0000000), wk =   0.0044444
        k(  364) = (   0.4382897   0.0583989   0.0000000), wk =   0.0044444
        k(  365) = (   0.4045750   0.0389334   0.0000000), wk =   0.0044444
        k(  366) = (   0.3708603   0.0194679   0.0000000), wk =   0.0044444
        k(  367) = (   0.3371456   0.0000024   0.0000000), wk =   0.0044444
        k(  368) = (   0.3034309  -0.0194631   0.0000000), wk =   0.0044444
        k(  369) = (   0.2697162  -0.0389286   0.0000000), wk =   0.0044444
        k(  370) = (   0.2360015  -0.0583941   0.0000000), wk =   0.0044444
        k(  371) = (   0.2022868  -0.0778596   0.0000000), wk =   0.0044444
        k(  372) = (  -0.2360045  -0.3698418   0.0000000), wk =   0.0044444
        k(  373) = (  -0.2697192  -0.3893073   0.0000000), wk =   0.0044444
        k(  374) = (  -0.3034339  -0.4087728   0.0000000), wk =   0.0044444
        k(  375) = (  -0.3371486  -0.4282383   0.0000000), wk =   0.0044444
        k(  376) = (  -0.3708633  -0.4477038   0.0000000), wk =   0.0044444
        k(  377) = (  -0.4045780  -0.4671693   0.0000000), wk =   0.0044444
        k(  378) = (  -0.4382927  -0.4866348   0.0000000), wk =   0.0044444
        k(  379) = (  -0.4720074  -0.5061003   0.0000000), wk =   0.0044444
        k(  380) = (   0.5057188   0.0583994   0.0000000), wk =   0.0044444
        k(  381) = (   0.4720041   0.0389339   0.0000000), wk =   0.0044444
        k(  382) = (   0.4382894   0.0194684   0.0000000), wk =   0.0044444
        k(  383) = (   0.4045747   0.0000029   0.0000000), wk =   0.0044444
        k(  384) = (   0.3708600  -0.0194627   0.0000000), wk =   0.0044444
        k(  385) = (   0.3371453  -0.0389282   0.0000000), wk =   0.0044444
        k(  386) = (   0.3034306  -0.0583937   0.0000000), wk =   0.0044444
        k(  387) = (   0.2697159  -0.0778592   0.0000000), wk =   0.0044444
        k(  388) = (   0.2360012  -0.0973247   0.0000000), wk =   0.0044444
        k(  389) = (  -0.2697195  -0.4282378   0.0000000), wk =   0.0044444
        k(  390) = (  -0.3034342  -0.4477033   0.0000000), wk =   0.0044444
        k(  391) = (  -0.3371489  -0.4671688   0.0000000), wk =   0.0044444
        k(  392) = (  -0.3708636  -0.4866343   0.0000000), wk =   0.0044444
        k(  393) = (  -0.4045783  -0.5060999   0.0000000), wk =   0.0044444
        k(  394) = (  -0.4382930  -0.5255654   0.0000000), wk =   0.0044444
        k(  395) = (  -0.4720077  -0.5450309   0.0000000), wk =   0.0044444
        k(  396) = (   0.5057186   0.0194688   0.0000000), wk =   0.0044444
        k(  397) = (   0.4720039   0.0000033   0.0000000), wk =   0.0044444
        k(  398) = (   0.4382892  -0.0194622   0.0000000), wk =   0.0044444
        k(  399) = (   0.4045745  -0.0389277   0.0000000), wk =   0.0044444
        k(  400) = (   0.3708598  -0.0583932   0.0000000), wk =   0.0044444
        k(  401) = (   0.3371451  -0.0778587   0.0000000), wk =   0.0044444
        k(  402) = (   0.3034304  -0.0973242   0.0000000), wk =   0.0044444
        k(  403) = (   0.2697157  -0.1167897   0.0000000), wk =   0.0044444
        k(  404) = (  -0.3034345  -0.4866339   0.0000000), wk =   0.0044444
        k(  405) = (  -0.3371492  -0.5060994   0.0000000), wk =   0.0044444
        k(  406) = (  -0.3708639  -0.5255649   0.0000000), wk =   0.0044444
        k(  407) = (  -0.4045786  -0.5450304   0.0000000), wk =   0.0044444
        k(  408) = (  -0.4382933  -0.5644959   0.0000000), wk =   0.0044444
        k(  409) = (  -0.4720080  -0.5839614   0.0000000), wk =   0.0044444
        k(  410) = (   0.5057183  -0.0194617   0.0000000), wk =   0.0044444
        k(  411) = (   0.4720036  -0.0389272   0.0000000), wk =   0.0044444
        k(  412) = (   0.4382889  -0.0583927   0.0000000), wk =   0.0044444
        k(  413) = (   0.4045742  -0.0778582   0.0000000), wk =   0.0044444
        k(  414) = (   0.3708595  -0.0973237   0.0000000), wk =   0.0044444
        k(  415) = (   0.3371448  -0.1167892   0.0000000), wk =   0.0044444
        k(  416) = (   0.3034301  -0.1362547   0.0000000), wk =   0.0044444
        k(  417) = (  -0.3371495  -0.5450299   0.0000000), wk =   0.0044444
        k(  418) = (  -0.3708642  -0.5644954   0.0000000), wk =   0.0044444
        k(  419) = (  -0.4045789  -0.5839609   0.0000000), wk =   0.0044444
        k(  420) = (  -0.4382936  -0.6034264   0.0000000), wk =   0.0044444
        k(  421) = (  -0.4720082  -0.6228919   0.0000000), wk =   0.0044444
        k(  422) = (   0.5057180  -0.0583922   0.0000000), wk =   0.0044444
        k(  423) = (   0.4720033  -0.0778577   0.0000000), wk =   0.0044444
        k(  424) = (   0.4382886  -0.0973233   0.0000000), wk =   0.0044444
        k(  425) = (   0.4045739  -0.1167888   0.0000000), wk =   0.0044444
        k(  426) = (   0.3708592  -0.1362543   0.0000000), wk =   0.0044444
        k(  427) = (   0.3371445  -0.1557198   0.0000000), wk =   0.0044444
        k(  428) = (  -0.3708644  -0.6034260   0.0000000), wk =   0.0044444
        k(  429) = (  -0.4045791  -0.6228915   0.0000000), wk =   0.0044444
        k(  430) = (  -0.4382938  -0.6423570   0.0000000), wk =   0.0044444
        k(  431) = (  -0.4720085  -0.6618225   0.0000000), wk =   0.0044444
        k(  432) = (   0.5057177  -0.0973228   0.0000000), wk =   0.0044444
        k(  433) = (   0.4720030  -0.1167883   0.0000000), wk =   0.0044444
        k(  434) = (   0.4382883  -0.1362538   0.0000000), wk =   0.0044444
        k(  435) = (   0.4045736  -0.1557193   0.0000000), wk =   0.0044444
        k(  436) = (   0.3708589  -0.1751848   0.0000000), wk =   0.0044444
        k(  437) = (  -0.4045794  -0.6618220   0.0000000), wk =   0.0044444
        k(  438) = (  -0.4382941  -0.6812875   0.0000000), wk =   0.0044444
        k(  439) = (  -0.4720088  -0.7007530   0.0000000), wk =   0.0044444
        k(  440) = (   0.5057175  -0.1362533   0.0000000), wk =   0.0044444
        k(  441) = (   0.4720028  -0.1557188   0.0000000), wk =   0.0044444
        k(  442) = (   0.4382881  -0.1751843   0.0000000), wk =   0.0044444
        k(  443) = (   0.4045734  -0.1946498   0.0000000), wk =   0.0044444
        k(  444) = (  -0.4382944  -0.7202181   0.0000000), wk =   0.0044444
        k(  445) = (  -0.4720091  -0.7396836   0.0000000), wk =   0.0044444
        k(  446) = (   0.5057172  -0.1751839   0.0000000), wk =   0.0044444
        k(  447) = (   0.4720025  -0.1946494   0.0000000), wk =   0.0044444
        k(  448) = (   0.4382878  -0.2141149   0.0000000), wk =   0.0044444
        k(  449) = (  -0.4720093  -0.7786141   0.0000000), wk =   0.0044444
        k(  450) = (   0.5057169  -0.2141144   0.0000000), wk =   0.0044444
        k(  451) = (   0.4720022  -0.2335799   0.0000000), wk =   0.0044444
        k(  452) = (   0.5057166  -0.2530449   0.0000000), wk =   0.0044444

                       cryst. coord.
        k(    1) = (   0.0000000   0.0000000   0.0000000), wk =   0.0022222
        k(    2) = (  -0.0000000   0.0333333   0.0000000), wk =   0.0044444
        k(    3) = (  -0.0000000   0.0666667   0.0000000), wk =   0.0044444
        k(    4) = (  -0.0000000   0.1000000   0.0000000), wk =   0.0044444
        k(    5) = (  -0.0000000   0.1333333   0.0000000), wk =   0.0044444
        k(    6) = (  -0.0000000   0.1666667   0.0000000), wk =   0.0044444
        k(    7) = (  -0.0000000   0.2000000   0.0000000), wk =   0.0044444
        k(    8) = (  -0.0000000   0.2333333   0.0000000), wk =   0.0044444
        k(    9) = (  -0.0000000   0.2666667   0.0000000), wk =   0.0044444
        k(   10) = (  -0.0000000   0.3000000   0.0000000), wk =   0.0044444
        k(   11) = (  -0.0000000   0.3333333   0.0000000), wk =   0.0044444
        k(   12) = (  -0.0000000   0.3666667   0.0000000), wk =   0.0044444
        k(   13) = (  -0.0000000   0.4000000   0.0000000), wk =   0.0044444
        k(   14) = (  -0.0000000   0.4333333   0.0000000), wk =   0.0044444
        k(   15) = (  -0.0000000   0.4666667   0.0000000), wk =   0.0044444
        k(   16) = (   0.0000000  -0.5000000   0.0000000), wk =   0.0022222
        k(   17) = (   0.0333333   0.0333333   0.0000000), wk =   0.0044444
        k(   18) = (   0.0333333   0.0666667   0.0000000), wk =   0.0044444
        k(   19) = (   0.0333333   0.1000000   0.0000000), wk =   0.0044444
        k(   20) = (   0.0333333   0.1333333   0.0000000), wk =   0.0044444
        k(   21) = (   0.0333333   0.1666667   0.0000000), wk =   0.0044444
        k(   22) = (   0.0333333   0.2000000   0.0000000), wk =   0.0044444
        k(   23) = (   0.0333333   0.2333333   0.0000000), wk =   0.0044444
        k(   24) = (   0.0333333   0.2666667   0.0000000), wk =   0.0044444
        k(   25) = (   0.0333333   0.3000000   0.0000000), wk =   0.0044444
        k(   26) = (   0.0333333   0.3333333   0.0000000), wk =   0.0044444
        k(   27) = (   0.0333333   0.3666667   0.0000000), wk =   0.0044444
        k(   28) = (   0.0333333   0.4000000   0.0000000), wk =   0.0044444
        k(   29) = (   0.0333333   0.4333333   0.0000000), wk =   0.0044444
        k(   30) = (   0.0333333   0.4666667   0.0000000), wk =   0.0044444
        k(   31) = (   0.0333333  -0.5000000   0.0000000), wk =   0.0044444
        k(   32) = (   0.0333333  -0.4666667   0.0000000), wk =   0.0044444
        k(   33) = (   0.0333333  -0.4333333   0.0000000), wk =   0.0044444
        k(   34) = (   0.0333333  -0.4000000   0.0000000), wk =   0.0044444
        k(   35) = (   0.0333333  -0.3666667   0.0000000), wk =   0.0044444
        k(   36) = (   0.0333333  -0.3333333   0.0000000), wk =   0.0044444
        k(   37) = (   0.0333333  -0.3000000   0.0000000), wk =   0.0044444
        k(   38) = (   0.0333333  -0.2666667   0.0000000), wk =   0.0044444
        k(   39) = (   0.0333333  -0.2333333   0.0000000), wk =   0.0044444
        k(   40) = (   0.0333333  -0.2000000   0.0000000), wk =   0.0044444
        k(   41) = (   0.0333333  -0.1666667   0.0000000), wk =   0.0044444
        k(   42) = (   0.0333333  -0.1333333   0.0000000), wk =   0.0044444
        k(   43) = (   0.0333333  -0.1000000   0.0000000), wk =   0.0044444
        k(   44) = (   0.0333333  -0.0666667   0.0000000), wk =   0.0044444
        k(   45) = (   0.0333333  -0.0333333   0.0000000), wk =   0.0044444
        k(   46) = (   0.0666667   0.0666667   0.0000000), wk =   0.0044444
        k(   47) = (   0.0666667   0.1000000   0.0000000), wk =   0.0044444
        k(   48) = (   0.0666667   0.1333333   0.0000000), wk =   0.0044444
        k(   49) = (   0.0666667   0.1666667   0.0000000), wk =   0.0044444
        k(   50) = (   0.0666667   0.2000000   0.0000000), wk =   0.0044444
        k(   51) = (   0.0666667   0.2333333   0.0000000), wk =   0.0044444
        k(   52) = (   0.0666667   0.2666667   0.0000000), wk =   0.0044444
        k(   53) = (   0.0666667   0.3000000   0.0000000), wk =   0.0044444
        k(   54) = (   0.0666667   0.3333333   0.0000000), wk =   0.0044444
        k(   55) = (   0.0666667   0.3666667   0.0000000), wk =   0.0044444
        k(   56) = (   0.0666667   0.4000000   0.0000000), wk =   0.0044444
        k(   57) = (   0.0666667   0.4333333   0.0000000), wk =   0.0044444
        k(   58) = (   0.0666667   0.4666667   0.0000000), wk =   0.0044444
        k(   59) = (   0.0666667  -0.5000000   0.0000000), wk =   0.0044444
        k(   60) = (   0.0666667  -0.4666667   0.0000000), wk =   0.0044444
        k(   61) = (   0.0666667  -0.4333333   0.0000000), wk =   0.0044444
        k(   62) = (   0.0666667  -0.4000000   0.0000000), wk =   0.0044444
        k(   63) = (   0.0666667  -0.3666667   0.0000000), wk =   0.0044444
        k(   64) = (   0.0666667  -0.3333333   0.0000000), wk =   0.0044444
        k(   65) = (   0.0666667  -0.3000000   0.0000000), wk =   0.0044444
        k(   66) = (   0.0666667  -0.2666667   0.0000000), wk =   0.0044444
        k(   67) = (   0.0666667  -0.2333333   0.0000000), wk =   0.0044444
        k(   68) = (   0.0666667  -0.2000000   0.0000000), wk =   0.0044444
        k(   69) = (   0.0666667  -0.1666667   0.0000000), wk =   0.0044444
        k(   70) = (   0.0666667  -0.1333333   0.0000000), wk =   0.0044444
        k(   71) = (   0.0666667  -0.1000000   0.0000000), wk =   0.0044444
        k(   72) = (   0.0666667  -0.0666667   0.0000000), wk =   0.0044444
        k(   73) = (   0.1000000   0.1000000   0.0000000), wk =   0.0044444
        k(   74) = (   0.1000000   0.1333333   0.0000000), wk =   0.0044444
        k(   75) = (   0.1000000   0.1666667   0.0000000), wk =   0.0044444
        k(   76) = (   0.1000000   0.2000000   0.0000000), wk =   0.0044444
        k(   77) = (   0.1000000   0.2333333   0.0000000), wk =   0.0044444
        k(   78) = (   0.1000000   0.2666667   0.0000000), wk =   0.0044444
        k(   79) = (   0.1000000   0.3000000   0.0000000), wk =   0.0044444
        k(   80) = (   0.1000000   0.3333333   0.0000000), wk =   0.0044444
        k(   81) = (   0.1000000   0.3666667   0.0000000), wk =   0.0044444
        k(   82) = (   0.1000000   0.4000000   0.0000000), wk =   0.0044444
        k(   83) = (   0.1000000   0.4333333   0.0000000), wk =   0.0044444
        k(   84) = (   0.1000000   0.4666667   0.0000000), wk =   0.0044444
        k(   85) = (   0.1000000  -0.5000000   0.0000000), wk =   0.0044444
        k(   86) = (   0.1000000  -0.4666667   0.0000000), wk =   0.0044444
        k(   87) = (   0.1000000  -0.4333333   0.0000000), wk =   0.0044444
        k(   88) = (   0.1000000  -0.4000000   0.0000000), wk =   0.0044444
        k(   89) = (   0.1000000  -0.3666667   0.0000000), wk =   0.0044444
        k(   90) = (   0.1000000  -0.3333333   0.0000000), wk =   0.0044444
        k(   91) = (   0.1000000  -0.3000000   0.0000000), wk =   0.0044444
        k(   92) = (   0.1000000  -0.2666667   0.0000000), wk =   0.0044444
        k(   93) = (   0.1000000  -0.2333333   0.0000000), wk =   0.0044444
        k(   94) = (   0.1000000  -0.2000000   0.0000000), wk =   0.0044444
        k(   95) = (   0.1000000  -0.1666667   0.0000000), wk =   0.0044444
        k(   96) = (   0.1000000  -0.1333333   0.0000000), wk =   0.0044444
        k(   97) = (   0.1000000  -0.1000000   0.0000000), wk =   0.0044444
        k(   98) = (   0.1333333   0.1333333   0.0000000), wk =   0.0044444
        k(   99) = (   0.1333333   0.1666667   0.0000000), wk =   0.0044444
        k(  100) = (   0.1333333   0.2000000   0.0000000), wk =   0.0044444
        k(  101) = (   0.1333333   0.2333333   0.0000000), wk =   0.0044444
        k(  102) = (   0.1333333   0.2666667   0.0000000), wk =   0.0044444
        k(  103) = (   0.1333333   0.3000000   0.0000000), wk =   0.0044444
        k(  104) = (   0.1333333   0.3333333   0.0000000), wk =   0.0044444
        k(  105) = (   0.1333333   0.3666667   0.0000000), wk =   0.0044444
        k(  106) = (   0.1333333   0.4000000   0.0000000), wk =   0.0044444
        k(  107) = (   0.1333333   0.4333333   0.0000000), wk =   0.0044444
        k(  108) = (   0.1333333   0.4666667   0.0000000), wk =   0.0044444
        k(  109) = (   0.1333333  -0.5000000   0.0000000), wk =   0.0044444
        k(  110) = (   0.1333333  -0.4666667   0.0000000), wk =   0.0044444
        k(  111) = (   0.1333333  -0.4333333   0.0000000), wk =   0.0044444
        k(  112) = (   0.1333333  -0.4000000   0.0000000), wk =   0.0044444
        k(  113) = (   0.1333333  -0.3666667   0.0000000), wk =   0.0044444
        k(  114) = (   0.1333333  -0.3333333   0.0000000), wk =   0.0044444
        k(  115) = (   0.1333333  -0.3000000   0.0000000), wk =   0.0044444
        k(  116) = (   0.1333333  -0.2666667   0.0000000), wk =   0.0044444
        k(  117) = (   0.1333333  -0.2333333   0.0000000), wk =   0.0044444
        k(  118) = (   0.1333333  -0.2000000   0.0000000), wk =   0.0044444
        k(  119) = (   0.1333333  -0.1666667   0.0000000), wk =   0.0044444
        k(  120) = (   0.1333333  -0.1333333   0.0000000), wk =   0.0044444
        k(  121) = (   0.1666667   0.1666667   0.0000000), wk =   0.0044444
        k(  122) = (   0.1666667   0.2000000   0.0000000), wk =   0.0044444
        k(  123) = (   0.1666667   0.2333333   0.0000000), wk =   0.0044444
        k(  124) = (   0.1666667   0.2666667   0.0000000), wk =   0.0044444
        k(  125) = (   0.1666667   0.3000000   0.0000000), wk =   0.0044444
        k(  126) = (   0.1666667   0.3333333   0.0000000), wk =   0.0044444
        k(  127) = (   0.1666667   0.3666667   0.0000000), wk =   0.0044444
        k(  128) = (   0.1666667   0.4000000   0.0000000), wk =   0.0044444
        k(  129) = (   0.1666667   0.4333333   0.0000000), wk =   0.0044444
        k(  130) = (   0.1666667   0.4666667   0.0000000), wk =   0.0044444
        k(  131) = (   0.1666667  -0.5000000   0.0000000), wk =   0.0044444
        k(  132) = (   0.1666667  -0.4666667   0.0000000), wk =   0.0044444
        k(  133) = (   0.1666667  -0.4333333   0.0000000), wk =   0.0044444
        k(  134) = (   0.1666667  -0.4000000   0.0000000), wk =   0.0044444
        k(  135) = (   0.1666667  -0.3666667   0.0000000), wk =   0.0044444
        k(  136) = (   0.1666667  -0.3333333   0.0000000), wk =   0.0044444
        k(  137) = (   0.1666667  -0.3000000   0.0000000), wk =   0.0044444
        k(  138) = (   0.1666667  -0.2666667   0.0000000), wk =   0.0044444
        k(  139) = (   0.1666667  -0.2333333   0.0000000), wk =   0.0044444
        k(  140) = (   0.1666667  -0.2000000   0.0000000), wk =   0.0044444
        k(  141) = (   0.1666667  -0.1666667   0.0000000), wk =   0.0044444
        k(  142) = (   0.2000000   0.2000000   0.0000000), wk =   0.0044444
        k(  143) = (   0.2000000   0.2333333   0.0000000), wk =   0.0044444
        k(  144) = (   0.2000000   0.2666667   0.0000000), wk =   0.0044444
        k(  145) = (   0.2000000   0.3000000   0.0000000), wk =   0.0044444
        k(  146) = (   0.2000000   0.3333333   0.0000000), wk =   0.0044444
        k(  147) = (   0.2000000   0.3666667   0.0000000), wk =   0.0044444
        k(  148) = (   0.2000000   0.4000000   0.0000000), wk =   0.0044444
        k(  149) = (   0.2000000   0.4333333   0.0000000), wk =   0.0044444
        k(  150) = (   0.2000000   0.4666667   0.0000000), wk =   0.0044444
        k(  151) = (   0.2000000  -0.5000000   0.0000000), wk =   0.0044444
        k(  152) = (   0.2000000  -0.4666667   0.0000000), wk =   0.0044444
        k(  153) = (   0.2000000  -0.4333333   0.0000000), wk =   0.0044444
        k(  154) = (   0.2000000  -0.4000000   0.0000000), wk =   0.0044444
        k(  155) = (   0.2000000  -0.3666667   0.0000000), wk =   0.0044444
        k(  156) = (   0.2000000  -0.3333333   0.0000000), wk =   0.0044444
        k(  157) = (   0.2000000  -0.3000000   0.0000000), wk =   0.0044444
        k(  158) = (   0.2000000  -0.2666667   0.0000000), wk =   0.0044444
        k(  159) = (   0.2000000  -0.2333333   0.0000000), wk =   0.0044444
        k(  160) = (   0.2000000  -0.2000000   0.0000000), wk =   0.0044444
        k(  161) = (   0.2333333   0.2333333   0.0000000), wk =   0.0044444
        k(  162) = (   0.2333333   0.2666667   0.0000000), wk =   0.0044444
        k(  163) = (   0.2333333   0.3000000   0.0000000), wk =   0.0044444
        k(  164) = (   0.2333333   0.3333333   0.0000000), wk =   0.0044444
        k(  165) = (   0.2333333   0.3666667   0.0000000), wk =   0.0044444
        k(  166) = (   0.2333333   0.4000000   0.0000000), wk =   0.0044444
        k(  167) = (   0.2333333   0.4333333   0.0000000), wk =   0.0044444
        k(  168) = (   0.2333333   0.4666667   0.0000000), wk =   0.0044444
        k(  169) = (   0.2333333  -0.5000000   0.0000000), wk =   0.0044444
        k(  170) = (   0.2333333  -0.4666667   0.0000000), wk =   0.0044444
        k(  171) = (   0.2333333  -0.4333333   0.0000000), wk =   0.0044444
        k(  172) = (   0.2333333  -0.4000000   0.0000000), wk =   0.0044444
        k(  173) = (   0.2333333  -0.3666667   0.0000000), wk =   0.0044444
        k(  174) = (   0.2333333  -0.3333333   0.0000000), wk =   0.0044444
        k(  175) = (   0.2333333  -0.3000000   0.0000000), wk =   0.0044444
        k(  176) = (   0.2333333  -0.2666667   0.0000000), wk =   0.0044444
        k(  177) = (   0.2333333  -0.2333333   0.0000000), wk =   0.0044444
        k(  178) = (   0.2666667   0.2666667   0.0000000), wk =   0.0044444
        k(  179) = (   0.2666667   0.3000000   0.0000000), wk =   0.0044444
        k(  180) = (   0.2666667   0.3333333   0.0000000), wk =   0.0044444
        k(  181) = (   0.2666667   0.3666667   0.0000000), wk =   0.0044444
        k(  182) = (   0.2666667   0.4000000   0.0000000), wk =   0.0044444
        k(  183) = (   0.2666667   0.4333333   0.0000000), wk =   0.0044444
        k(  184) = (   0.2666667   0.4666667   0.0000000), wk =   0.0044444
        k(  185) = (   0.2666667  -0.5000000   0.0000000), wk =   0.0044444
        k(  186) = (   0.2666667  -0.4666667   0.0000000), wk =   0.0044444
        k(  187) = (   0.2666667  -0.4333333   0.0000000), wk =   0.0044444
        k(  188) = (   0.2666667  -0.4000000   0.0000000), wk =   0.0044444
        k(  189) = (   0.2666667  -0.3666667   0.0000000), wk =   0.0044444
        k(  190) = (   0.2666667  -0.3333333   0.0000000), wk =   0.0044444
        k(  191) = (   0.2666667  -0.3000000   0.0000000), wk =   0.0044444
        k(  192) = (   0.2666667  -0.2666667   0.0000000), wk =   0.0044444
        k(  193) = (   0.3000000   0.3000000   0.0000000), wk =   0.0044444
        k(  194) = (   0.3000000   0.3333333   0.0000000), wk =   0.0044444
        k(  195) = (   0.3000000   0.3666667   0.0000000), wk =   0.0044444
        k(  196) = (   0.3000000   0.4000000   0.0000000), wk =   0.0044444
        k(  197) = (   0.3000000   0.4333333   0.0000000), wk =   0.0044444
        k(  198) = (   0.3000000   0.4666667   0.0000000), wk =   0.0044444
        k(  199) = (   0.3000000  -0.5000000   0.0000000), wk =   0.0044444
        k(  200) = (   0.3000000  -0.4666667   0.0000000), wk =   0.0044444
        k(  201) = (   0.3000000  -0.4333333   0.0000000), wk =   0.0044444
        k(  202) = (   0.3000000  -0.4000000   0.0000000), wk =   0.0044444
        k(  203) = (   0.3000000  -0.3666667   0.0000000), wk =   0.0044444
        k(  204) = (   0.3000000  -0.3333333   0.0000000), wk =   0.0044444
        k(  205) = (   0.3000000  -0.3000000   0.0000000), wk =   0.0044444
        k(  206) = (   0.3333333   0.3333333   0.0000000), wk =   0.0044444
        k(  207) = (   0.3333333   0.3666667   0.0000000), wk =   0.0044444
        k(  208) = (   0.3333333   0.4000000   0.0000000), wk =   0.0044444
        k(  209) = (   0.3333333   0.4333333   0.0000000), wk =   0.0044444
        k(  210) = (   0.3333333   0.4666667   0.0000000), wk =   0.0044444
        k(  211) = (   0.3333333  -0.5000000   0.0000000), wk =   0.0044444
        k(  212) = (   0.3333333  -0.4666667   0.0000000), wk =   0.0044444
        k(  213) = (   0.3333333  -0.4333333   0.0000000), wk =   0.0044444
        k(  214) = (   0.3333333  -0.4000000   0.0000000), wk =   0.0044444
        k(  215) = (   0.3333333  -0.3666667   0.0000000), wk =   0.0044444
        k(  216) = (   0.3333333  -0.3333333   0.0000000), wk =   0.0044444
        k(  217) = (   0.3666667   0.3666667   0.0000000), wk =   0.0044444
        k(  218) = (   0.3666667   0.4000000   0.0000000), wk =   0.0044444
        k(  219) = (   0.3666667   0.4333333   0.0000000), wk =   0.0044444
        k(  220) = (   0.3666667   0.4666667   0.0000000), wk =   0.0044444
        k(  221) = (   0.3666667  -0.5000000   0.0000000), wk =   0.0044444
        k(  222) = (   0.3666667  -0.4666667   0.0000000), wk =   0.0044444
        k(  223) = (   0.3666667  -0.4333333   0.0000000), wk =   0.0044444
        k(  224) = (   0.3666667  -0.4000000   0.0000000), wk =   0.0044444
        k(  225) = (   0.3666667  -0.3666667   0.0000000), wk =   0.0044444
        k(  226) = (   0.4000000   0.4000000   0.0000000), wk =   0.0044444
        k(  227) = (   0.4000000   0.4333333   0.0000000), wk =   0.0044444
        k(  228) = (   0.4000000   0.4666667   0.0000000), wk =   0.0044444
        k(  229) = (   0.4000000  -0.5000000   0.0000000), wk =   0.0044444
        k(  230) = (   0.4000000  -0.4666667   0.0000000), wk =   0.0044444
        k(  231) = (   0.4000000  -0.4333333   0.0000000), wk =   0.0044444
        k(  232) = (   0.4000000  -0.4000000   0.0000000), wk =   0.0044444
        k(  233) = (   0.4333333   0.4333333   0.0000000), wk =   0.0044444
        k(  234) = (   0.4333333   0.4666667   0.0000000), wk =   0.0044444
        k(  235) = (   0.4333333  -0.5000000   0.0000000), wk =   0.0044444
        k(  236) = (   0.4333333  -0.4666667   0.0000000), wk =   0.0044444
        k(  237) = (   0.4333333  -0.4333333   0.0000000), wk =   0.0044444
        k(  238) = (   0.4666667   0.4666667   0.0000000), wk =   0.0044444
        k(  239) = (   0.4666667  -0.5000000   0.0000000), wk =   0.0044444
        k(  240) = (   0.4666667  -0.4666667   0.0000000), wk =   0.0044444
        k(  241) = (  -0.5000000  -0.5000000   0.0000000), wk =   0.0022222
        k(  242) = (  -0.0333333   0.0000000   0.0000000), wk =   0.0044444
        k(  243) = (  -0.0666667   0.0000000   0.0000000), wk =   0.0044444
        k(  244) = (  -0.1000000  -0.0000000   0.0000000), wk =   0.0044444
        k(  245) = (  -0.1333333   0.0000000   0.0000000), wk =   0.0044444
        k(  246) = (  -0.1666667   0.0000000   0.0000000), wk =   0.0044444
        k(  247) = (  -0.2000000  -0.0000000   0.0000000), wk =   0.0044444
        k(  248) = (  -0.2333333  -0.0000000   0.0000000), wk =   0.0044444
        k(  249) = (  -0.2666667   0.0000000   0.0000000), wk =   0.0044444
        k(  250) = (  -0.3000000  -0.0000000   0.0000000), wk =   0.0044444
        k(  251) = (  -0.3333333   0.0000000   0.0000000), wk =   0.0044444
        k(  252) = (  -0.3666667  -0.0000000   0.0000000), wk =   0.0044444
        k(  253) = (  -0.4000000  -0.0000000   0.0000000), wk =   0.0044444
        k(  254) = (  -0.4333333   0.0000000   0.0000000), wk =   0.0044444
        k(  255) = (  -0.4666667  -0.0000000   0.0000000), wk =   0.0044444
        k(  256) = (   0.5000000   0.0000000   0.0000000), wk =   0.0022222
        k(  257) = (  -0.0666667  -0.0333333   0.0000000), wk =   0.0044444
        k(  258) = (  -0.1000000  -0.0333333   0.0000000), wk =   0.0044444
        k(  259) = (  -0.1333333  -0.0333333   0.0000000), wk =   0.0044444
        k(  260) = (  -0.1666667  -0.0333333   0.0000000), wk =   0.0044444
        k(  261) = (  -0.2000000  -0.0333333   0.0000000), wk =   0.0044444
        k(  262) = (  -0.2333333  -0.0333333   0.0000000), wk =   0.0044444
        k(  263) = (  -0.2666667  -0.0333333   0.0000000), wk =   0.0044444
        k(  264) = (  -0.3000000  -0.0333333   0.0000000), wk =   0.0044444
        k(  265) = (  -0.3333333  -0.0333333   0.0000000), wk =   0.0044444
        k(  266) = (  -0.3666667  -0.0333333   0.0000000), wk =   0.0044444
        k(  267) = (  -0.4000000  -0.0333333   0.0000000), wk =   0.0044444
        k(  268) = (  -0.4333333  -0.0333333   0.0000000), wk =   0.0044444
        k(  269) = (  -0.4666667  -0.0333333   0.0000000), wk =   0.0044444
        k(  270) = (   0.5000000  -0.0333333   0.0000000), wk =   0.0044444
        k(  271) = (   0.4666667  -0.0333333   0.0000000), wk =   0.0044444
        k(  272) = (   0.4333333  -0.0333333   0.0000000), wk =   0.0044444
        k(  273) = (   0.4000000  -0.0333333   0.0000000), wk =   0.0044444
        k(  274) = (   0.3666667  -0.0333333   0.0000000), wk =   0.0044444
        k(  275) = (   0.3333333  -0.0333333   0.0000000), wk =   0.0044444
        k(  276) = (   0.3000000  -0.0333333   0.0000000), wk =   0.0044444
        k(  277) = (   0.2666667  -0.0333333   0.0000000), wk =   0.0044444
        k(  278) = (   0.2333333  -0.0333333   0.0000000), wk =   0.0044444
        k(  279) = (   0.2000000  -0.0333333   0.0000000), wk =   0.0044444
        k(  280) = (   0.1666667  -0.0333333   0.0000000), wk =   0.0044444
        k(  281) = (   0.1333333  -0.0333333   0.0000000), wk =   0.0044444
        k(  282) = (   0.1000000  -0.0333333   0.0000000), wk =   0.0044444
        k(  283) = (   0.0666667  -0.0333333   0.0000000), wk =   0.0044444
        k(  284) = (  -0.1000000  -0.0666667   0.0000000), wk =   0.0044444
        k(  285) = (  -0.1333333  -0.0666667   0.0000000), wk =   0.0044444
        k(  286) = (  -0.1666667  -0.0666667   0.0000000), wk =   0.0044444
        k(  287) = (  -0.2000000  -0.0666667   0.0000000), wk =   0.0044444
        k(  288) = (  -0.2333333  -0.0666667   0.0000000), wk =   0.0044444
        k(  289) = (  -0.2666667  -0.0666667   0.0000000), wk =   0.0044444
        k(  290) = (  -0.3000000  -0.0666667   0.0000000), wk =   0.0044444
        k(  291) = (  -0.3333333  -0.0666667   0.0000000), wk =   0.0044444
        k(  292) = (  -0.3666667  -0.0666667   0.0000000), wk =   0.0044444
        k(  293) = (  -0.4000000  -0.0666667   0.0000000), wk =   0.0044444
        k(  294) = (  -0.4333333  -0.0666667   0.0000000), wk =   0.0044444
        k(  295) = (  -0.4666667  -0.0666667   0.0000000), wk =   0.0044444
        k(  296) = (   0.5000000  -0.0666667   0.0000000), wk =   0.0044444
        k(  297) = (   0.4666667  -0.0666667   0.0000000), wk =   0.0044444
        k(  298) = (   0.4333333  -0.0666667   0.0000000), wk =   0.0044444
        k(  299) = (   0.4000000  -0.0666667   0.0000000), wk =   0.0044444
        k(  300) = (   0.3666667  -0.0666667   0.0000000), wk =   0.0044444
        k(  301) = (   0.3333333  -0.0666667   0.0000000), wk =   0.0044444
        k(  302) = (   0.3000000  -0.0666667   0.0000000), wk =   0.0044444
        k(  303) = (   0.2666667  -0.0666667   0.0000000), wk =   0.0044444
        k(  304) = (   0.2333333  -0.0666667   0.0000000), wk =   0.0044444
        k(  305) = (   0.2000000  -0.0666667   0.0000000), wk =   0.0044444
        k(  306) = (   0.1666667  -0.0666667   0.0000000), wk =   0.0044444
        k(  307) = (   0.1333333  -0.0666667   0.0000000), wk =   0.0044444
        k(  308) = (   0.1000000  -0.0666667   0.0000000), wk =   0.0044444
        k(  309) = (  -0.1333333  -0.1000000   0.0000000), wk =   0.0044444
        k(  310) = (  -0.1666667  -0.1000000   0.0000000), wk =   0.0044444
        k(  311) = (  -0.2000000  -0.1000000   0.0000000), wk =   0.0044444
        k(  312) = (  -0.2333333  -0.1000000   0.0000000), wk =   0.0044444
        k(  313) = (  -0.2666667  -0.1000000   0.0000000), wk =   0.0044444
        k(  314) = (  -0.3000000  -0.1000000   0.0000000), wk =   0.0044444
        k(  315) = (  -0.3333333  -0.1000000   0.0000000), wk =   0.0044444
        k(  316) = (  -0.3666667  -0.1000000   0.0000000), wk =   0.0044444
        k(  317) = (  -0.4000000  -0.1000000   0.0000000), wk =   0.0044444
        k(  318) = (  -0.4333333  -0.1000000   0.0000000), wk =   0.0044444
        k(  319) = (  -0.4666667  -0.1000000   0.0000000), wk =   0.0044444
        k(  320) = (   0.5000000  -0.1000000   0.0000000), wk =   0.0044444
        k(  321) = (   0.4666667  -0.1000000   0.0000000), wk =   0.0044444
        k(  322) = (   0.4333333  -0.1000000   0.0000000), wk =   0.0044444
        k(  323) = (   0.4000000  -0.1000000   0.0000000), wk =   0.0044444
        k(  324) = (   0.3666667  -0.1000000   0.0000000), wk =   0.0044444
        k(  325) = (   0.3333333  -0.1000000   0.0000000), wk =   0.0044444
        k(  326) = (   0.3000000  -0.1000000   0.0000000), wk =   0.0044444
        k(  327) = (   0.2666667  -0.1000000   0.0000000), wk =   0.0044444
        k(  328) = (   0.2333333  -0.1000000   0.0000000), wk =   0.0044444
        k(  329) = (   0.2000000  -0.1000000   0.0000000), wk =   0.0044444
        k(  330) = (   0.1666667  -0.1000000   0.0000000), wk =   0.0044444
        k(  331) = (   0.1333333  -0.1000000   0.0000000), wk =   0.0044444
        k(  332) = (  -0.1666667  -0.1333333   0.0000000), wk =   0.0044444
        k(  333) = (  -0.2000000  -0.1333333   0.0000000), wk =   0.0044444
        k(  334) = (  -0.2333333  -0.1333333   0.0000000), wk =   0.0044444
        k(  335) = (  -0.2666667  -0.1333333   0.0000000), wk =   0.0044444
        k(  336) = (  -0.3000000  -0.1333333   0.0000000), wk =   0.0044444
        k(  337) = (  -0.3333333  -0.1333333   0.0000000), wk =   0.0044444
        k(  338) = (  -0.3666667  -0.1333333   0.0000000), wk =   0.0044444
        k(  339) = (  -0.4000000  -0.1333333   0.0000000), wk =   0.0044444
        k(  340) = (  -0.4333333  -0.1333333   0.0000000), wk =   0.0044444
        k(  341) = (  -0.4666667  -0.1333333   0.0000000), wk =   0.0044444
        k(  342) = (   0.5000000  -0.1333333   0.0000000), wk =   0.0044444
        k(  343) = (   0.4666667  -0.1333333   0.0000000), wk =   0.0044444
        k(  344) = (   0.4333333  -0.1333333   0.0000000), wk =   0.0044444
        k(  345) = (   0.4000000  -0.1333333   0.0000000), wk =   0.0044444
        k(  346) = (   0.3666667  -0.1333333   0.0000000), wk =   0.0044444
        k(  347) = (   0.3333333  -0.1333333   0.0000000), wk =   0.0044444
        k(  348) = (   0.3000000  -0.1333333   0.0000000), wk =   0.0044444
        k(  349) = (   0.2666667  -0.1333333   0.0000000), wk =   0.0044444
        k(  350) = (   0.2333333  -0.1333333   0.0000000), wk =   0.0044444
        k(  351) = (   0.2000000  -0.1333333   0.0000000), wk =   0.0044444
        k(  352) = (   0.1666667  -0.1333333   0.0000000), wk =   0.0044444
        k(  353) = (  -0.2000000  -0.1666667   0.0000000), wk =   0.0044444
        k(  354) = (  -0.2333333  -0.1666667   0.0000000), wk =   0.0044444
        k(  355) = (  -0.2666667  -0.1666667   0.0000000), wk =   0.0044444
        k(  356) = (  -0.3000000  -0.1666667   0.0000000), wk =   0.0044444
        k(  357) = (  -0.3333333  -0.1666667   0.0000000), wk =   0.0044444
        k(  358) = (  -0.3666667  -0.1666667   0.0000000), wk =   0.0044444
        k(  359) = (  -0.4000000  -0.1666667   0.0000000), wk =   0.0044444
        k(  360) = (  -0.4333333  -0.1666667   0.0000000), wk =   0.0044444
        k(  361) = (  -0.4666667  -0.1666667   0.0000000), wk =   0.0044444
        k(  362) = (   0.5000000  -0.1666667   0.0000000), wk =   0.0044444
        k(  363) = (   0.4666667  -0.1666667   0.0000000), wk =   0.0044444
        k(  364) = (   0.4333333  -0.1666667   0.0000000), wk =   0.0044444
        k(  365) = (   0.4000000  -0.1666667   0.0000000), wk =   0.0044444
        k(  366) = (   0.3666667  -0.1666667   0.0000000), wk =   0.0044444
        k(  367) = (   0.3333333  -0.1666667   0.0000000), wk =   0.0044444
        k(  368) = (   0.3000000  -0.1666667   0.0000000), wk =   0.0044444
        k(  369) = (   0.2666667  -0.1666667   0.0000000), wk =   0.0044444
        k(  370) = (   0.2333333  -0.1666667   0.0000000), wk =   0.0044444
        k(  371) = (   0.2000000  -0.1666667   0.0000000), wk =   0.0044444
        k(  372) = (  -0.2333333  -0.2000000   0.0000000), wk =   0.0044444
        k(  373) = (  -0.2666667  -0.2000000   0.0000000), wk =   0.0044444
        k(  374) = (  -0.3000000  -0.2000000   0.0000000), wk =   0.0044444
        k(  375) = (  -0.3333333  -0.2000000   0.0000000), wk =   0.0044444
        k(  376) = (  -0.3666667  -0.2000000   0.0000000), wk =   0.0044444
        k(  377) = (  -0.4000000  -0.2000000   0.0000000), wk =   0.0044444
        k(  378) = (  -0.4333333  -0.2000000   0.0000000), wk =   0.0044444
        k(  379) = (  -0.4666667  -0.2000000   0.0000000), wk =   0.0044444
        k(  380) = (   0.5000000  -0.2000000   0.0000000), wk =   0.0044444
        k(  381) = (   0.4666667  -0.2000000   0.0000000), wk =   0.0044444
        k(  382) = (   0.4333333  -0.2000000   0.0000000), wk =   0.0044444
        k(  383) = (   0.4000000  -0.2000000   0.0000000), wk =   0.0044444
        k(  384) = (   0.3666667  -0.2000000   0.0000000), wk =   0.0044444
        k(  385) = (   0.3333333  -0.2000000   0.0000000), wk =   0.0044444
        k(  386) = (   0.3000000  -0.2000000   0.0000000), wk =   0.0044444
        k(  387) = (   0.2666667  -0.2000000   0.0000000), wk =   0.0044444
        k(  388) = (   0.2333333  -0.2000000   0.0000000), wk =   0.0044444
        k(  389) = (  -0.2666667  -0.2333333   0.0000000), wk =   0.0044444
        k(  390) = (  -0.3000000  -0.2333333   0.0000000), wk =   0.0044444
        k(  391) = (  -0.3333333  -0.2333333   0.0000000), wk =   0.0044444
        k(  392) = (  -0.3666667  -0.2333333   0.0000000), wk =   0.0044444
        k(  393) = (  -0.4000000  -0.2333333   0.0000000), wk =   0.0044444
        k(  394) = (  -0.4333333  -0.2333333   0.0000000), wk =   0.0044444
        k(  395) = (  -0.4666667  -0.2333333   0.0000000), wk =   0.0044444
        k(  396) = (   0.5000000  -0.2333333   0.0000000), wk =   0.0044444
        k(  397) = (   0.4666667  -0.2333333   0.0000000), wk =   0.0044444
        k(  398) = (   0.4333333  -0.2333333   0.0000000), wk =   0.0044444
        k(  399) = (   0.4000000  -0.2333333   0.0000000), wk =   0.0044444
        k(  400) = (   0.3666667  -0.2333333   0.0000000), wk =   0.0044444
        k(  401) = (   0.3333333  -0.2333333   0.0000000), wk =   0.0044444
        k(  402) = (   0.3000000  -0.2333333   0.0000000), wk =   0.0044444
        k(  403) = (   0.2666667  -0.2333333   0.0000000), wk =   0.0044444
        k(  404) = (  -0.3000000  -0.2666667   0.0000000), wk =   0.0044444
        k(  405) = (  -0.3333333  -0.2666667   0.0000000), wk =   0.0044444
        k(  406) = (  -0.3666667  -0.2666667   0.0000000), wk =   0.0044444
        k(  407) = (  -0.4000000  -0.2666667   0.0000000), wk =   0.0044444
        k(  408) = (  -0.4333333  -0.2666667   0.0000000), wk =   0.0044444
        k(  409) = (  -0.4666667  -0.2666667   0.0000000), wk =   0.0044444
        k(  410) = (   0.5000000  -0.2666667   0.0000000), wk =   0.0044444
        k(  411) = (   0.4666667  -0.2666667   0.0000000), wk =   0.0044444
        k(  412) = (   0.4333333  -0.2666667   0.0000000), wk =   0.0044444
        k(  413) = (   0.4000000  -0.2666667   0.0000000), wk =   0.0044444
        k(  414) = (   0.3666667  -0.2666667   0.0000000), wk =   0.0044444
        k(  415) = (   0.3333333  -0.2666667   0.0000000), wk =   0.0044444
        k(  416) = (   0.3000000  -0.2666667   0.0000000), wk =   0.0044444
        k(  417) = (  -0.3333333  -0.3000000   0.0000000), wk =   0.0044444
        k(  418) = (  -0.3666667  -0.3000000   0.0000000), wk =   0.0044444
        k(  419) = (  -0.4000000  -0.3000000   0.0000000), wk =   0.0044444
        k(  420) = (  -0.4333333  -0.3000000   0.0000000), wk =   0.0044444
        k(  421) = (  -0.4666667  -0.3000000   0.0000000), wk =   0.0044444
        k(  422) = (   0.5000000  -0.3000000   0.0000000), wk =   0.0044444
        k(  423) = (   0.4666667  -0.3000000   0.0000000), wk =   0.0044444
        k(  424) = (   0.4333333  -0.3000000   0.0000000), wk =   0.0044444
        k(  425) = (   0.4000000  -0.3000000   0.0000000), wk =   0.0044444
        k(  426) = (   0.3666667  -0.3000000   0.0000000), wk =   0.0044444
        k(  427) = (   0.3333333  -0.3000000   0.0000000), wk =   0.0044444
        k(  428) = (  -0.3666667  -0.3333333   0.0000000), wk =   0.0044444
        k(  429) = (  -0.4000000  -0.3333333   0.0000000), wk =   0.0044444
        k(  430) = (  -0.4333333  -0.3333333   0.0000000), wk =   0.0044444
        k(  431) = (  -0.4666667  -0.3333333   0.0000000), wk =   0.0044444
        k(  432) = (   0.5000000  -0.3333333   0.0000000), wk =   0.0044444
        k(  433) = (   0.4666667  -0.3333333   0.0000000), wk =   0.0044444
        k(  434) = (   0.4333333  -0.3333333   0.0000000), wk =   0.0044444
        k(  435) = (   0.4000000  -0.3333333   0.0000000), wk =   0.0044444
        k(  436) = (   0.3666667  -0.3333333   0.0000000), wk =   0.0044444
        k(  437) = (  -0.4000000  -0.3666667   0.0000000), wk =   0.0044444
        k(  438) = (  -0.4333333  -0.3666667   0.0000000), wk =   0.0044444
        k(  439) = (  -0.4666667  -0.3666667   0.0000000), wk =   0.0044444
        k(  440) = (   0.5000000  -0.3666667   0.0000000), wk =   0.0044444
        k(  441) = (   0.4666667  -0.3666667   0.0000000), wk =   0.0044444
        k(  442) = (   0.4333333  -0.3666667   0.0000000), wk =   0.0044444
        k(  443) = (   0.4000000  -0.3666667   0.0000000), wk =   0.0044444
        k(  444) = (  -0.4333333  -0.4000000   0.0000000), wk =   0.0044444
        k(  445) = (  -0.4666667  -0.4000000   0.0000000), wk =   0.0044444
        k(  446) = (   0.5000000  -0.4000000   0.0000000), wk =   0.0044444
        k(  447) = (   0.4666667  -0.4000000   0.0000000), wk =   0.0044444
        k(  448) = (   0.4333333  -0.4000000   0.0000000), wk =   0.0044444
        k(  449) = (  -0.4666667  -0.4333333   0.0000000), wk =   0.0044444
        k(  450) = (   0.5000000  -0.4333333   0.0000000), wk =   0.0044444
        k(  451) = (   0.4666667  -0.4333333   0.0000000), wk =   0.0044444
        k(  452) = (   0.5000000  -0.4666667   0.0000000), wk =   0.0044444

     Dense  grid:  2219997 G-vectors     FFT dimensions: ( 135, 135, 270)

     Smooth grid:   561725 G-vectors     FFT dimensions: (  90,  90, 180)

     Dynamical RAM for                 wfc:       6.69 MB

     Dynamical RAM for     wfc (w. buffer):       6.69 MB

     Dynamical RAM for           str. fact:       4.23 MB

     Dynamical RAM for           local pot:       0.00 MB

     Dynamical RAM for          nlocal pot:      20.35 MB

     Dynamical RAM for                qrad:       4.39 MB

     Dynamical RAM for          rho,v,vnew:      13.44 MB

     Dynamical RAM for           G-vectors:       8.21 MB

     Dynamical RAM for          h,s,v(r/c):       7.32 MB

     Dynamical RAM for          <psi|beta>:       0.46 MB

     Dynamical RAM for                 psi:      26.78 MB

     Dynamical RAM for                hpsi:      26.78 MB

     Dynamical RAM for      wfcinit/wfcrot:      59.66 MB

     Estimated static dynamical RAM per process >      75.49 MB

     Estimated max dynamical RAM per process >     136.83 MB

     Estimated total dynamical RAM >       2.14 GB

     The potential is recalculated from file :
     ./out/3x3_MoS2.save/charge-density

     Starting wfcs are  416 randomized atomic wfcs

     Band Structure Calculation
     Davidson diagonalization with overlap

     Computing kpt #:     1  of   452
     c_bands:  1 eigenvalues not converged
     total cpu time spent up to now is      134.8 secs

     Computing kpt #:     2  of   452
     c_bands:  1 eigenvalues not converged
     total cpu time spent up to now is      351.6 secs

     Computing kpt #:     3  of   452
     total cpu time spent up to now is      592.7 secs

     Computing kpt #:     4  of   452
     total cpu time spent up to now is      788.0 secs

     Computing kpt #:     5  of   452
     total cpu time spent up to now is      989.7 secs

     Computing kpt #:     6  of   452
     total cpu time spent up to now is     1189.7 secs

     Computing kpt #:     7  of   452
[...]
    -4.6611  -4.6494  -4.5758  -4.5369  -4.4877  -4.4371  -4.3313  -4.2099
    -4.1196  -4.0283  -3.9479  -3.7823  -3.6977  -3.4583  -3.3510  -3.2979
    -3.2799  -3.2503  -3.1447  -3.1255  -3.0884  -2.9328  -2.8667  -2.6860
    -2.6448  -2.4845  -2.3324  -2.1837  -1.9968  -1.9465  -1.8230  -1.7876
    -1.7259  -1.6991  -1.6297  -1.6000  -1.4518  -1.2773   0.1912   0.3638
     0.9997   1.1032   1.2333   1.2654   1.4184   1.4903   1.5522   1.6194
     1.6713   1.7444   1.7751   1.8318   1.8809   1.9479   2.0534   2.1599
     2.1822   2.2062   2.2550   2.3020

     occupation numbers 
     1.0000   1.0000   1.0000   1.0000   1.0000   1.0000   1.0000   1.0000
     1.0000   1.0000   1.0000   1.0000   1.0000   1.0000   1.0000   1.0000
     1.0000   1.0000   1.0000   1.0000   1.0000   1.0000   1.0000   1.0000
     1.0000   1.0000   1.0000   1.0000   1.0000   1.0000   1.0000   1.0000
     1.0000   1.0000   1.0000   1.0000   1.0000   1.0000   1.0000   1.0000
     1.0000   1.0000   1.0000   1.0000   1.0000   1.0000   1.0000   1.0000
     1.0000   1.0000   1.0000   1.0000   1.0000   1.0000   1.0000   1.0000
     1.0000   1.0000   1.0000   1.0000   1.0000   1.0000   1.0000   1.0000
     1.0000   1.0000   1.0000   1.0000   1.0000   1.0000   1.0000   1.0000
     1.0000   1.0000   1.0000   1.0000   1.0000   1.0000   0.0000   0.0000
     0.0000   0.0000   0.0000   0.0000   0.0000   0.0000   0.0000   0.0000
     0.0000   0.0000   0.0000   0.0000   0.0000   0.0000   0.0000   0.0000
     0.0000   0.0000   0.0000   0.0000

          k =-0.4720-0.7397 0.0000 ( 70166 PWs)   bands (ev):

   -15.2587 -15.1152 -14.7309 -14.2474 -14.1989 -14.0982 -13.8955 -13.7429
   -13.6497 -13.5763 -13.5475 -13.5163 -13.3782 -13.3053 -13.2218 -13.2073
   -13.1785  -7.3206  -7.0223  -6.9354  -6.7385  -6.7021  -6.6814  -6.5871
    -6.5606  -6.4894  -6.4054  -6.3218  -6.2786  -6.0268  -5.9290  -5.4470
    -5.3625  -5.3152  -5.1930  -5.0737  -5.0307  -4.9461  -4.8634  -4.7166
    -4.6583  -4.6380  -4.5881  -4.5400  -4.4647  -4.4500  -4.3389  -4.2264
    -4.1262  -4.0280  -3.9601  -3.7822  -3.6510  -3.4738  -3.3618  -3.2874
    -3.2677  -3.2114  -3.1373  -3.1165  -3.0813  -2.9345  -2.8888  -2.6966
    -2.6395  -2.4781  -2.2772  -2.2094  -2.0172  -1.9702  -1.8449  -1.7890
    -1.7252  -1.6961  -1.6296  -1.5902  -1.4567  -1.2767   0.2031   0.3464
     0.9864   1.0849   1.2432   1.2881   1.4284   1.4856   1.5297   1.6124
     1.6807   1.7568   1.7842   1.8555   1.8727   1.9430   2.0416   2.1511
     2.1787   2.2221   2.2666   2.3264

     occupation numbers 
     1.0000   1.0000   1.0000   1.0000   1.0000   1.0000   1.0000   1.0000
     1.0000   1.0000   1.0000   1.0000   1.0000   1.0000   1.0000   1.0000
     1.0000   1.0000   1.0000   1.0000   1.0000   1.0000   1.0000   1.0000
     1.0000   1.0000   1.0000   1.0000   1.0000   1.0000   1.0000   1.0000
     1.0000   1.0000   1.0000   1.0000   1.0000   1.0000   1.0000   1.0000
     1.0000   1.0000   1.0000   1.0000   1.0000   1.0000   1.0000   1.0000
     1.0000   1.0000   1.0000   1.0000   1.0000   1.0000   1.0000   1.0000
     1.0000   1.0000   1.0000   1.0000   1.0000   1.0000   1.0000   1.0000
     1.0000   1.0000   1.0000   1.0000   1.0000   1.0000   1.0000   1.0000
     1.0000   1.0000   1.0000   1.0000   1.0000   1.0000   0.0000   0.0000
     0.0000   0.0000   0.0000   0.0000   0.0000   0.0000   0.0000   0.0000
     0.0000   0.0000   0.0000   0.0000   0.0000   0.0000   0.0000   0.0000
     0.0000   0.0000   0.0000   0.0000

          k = 0.5057-0.1752 0.0000 ( 70167 PWs)   bands (ev):

   -15.2864 -15.1007 -14.6730 -14.3001 -14.2153 -14.0940 -13.8651 -13.7377
   -13.6427 -13.5880 -13.5638 -13.5192 -13.3797 -13.2960 -13.2234 -13.2131
   -13.1726  -7.3258  -6.9938  -6.8980  -6.7654  -6.7215  -6.6996  -6.5777
    -6.5570  -6.4691  -6.4138  -6.3422  -6.2711  -6.0200  -5.9402  -5.4270
    -5.3307  -5.2901  -5.1803  -5.0988  -5.0710  -4.9826  -4.8602  -4.7321
    -4.6806  -4.6238  -4.5915  -4.5321  -4.4654  -4.4320  -4.3544  -4.2492
    -4.1234  -4.0254  -3.9664  -3.7939  -3.6085  -3.5016  -3.3563  -3.2799
    -3.2549  -3.1640  -3.1296  -3.0989  -3.0706  -2.9389  -2.9071  -2.7120
    -2.6359  -2.4760  -2.2541  -2.2053  -2.0368  -1.9897  -1.8747  -1.7945
    -1.7305  -1.6915  -1.6268  -1.5798  -1.4598  -1.2744   0.2168   0.3267
     0.9793   1.0684   1.2494   1.3089   1.4320   1.4801   1.5110   1.6100
     1.6868   1.7606   1.7962   1.8700   1.8770   1.9437   2.0310   2.1391
     2.1665   2.2305   2.2819   2.3547

     occupation numbers 
     1.0000   1.0000   1.0000   1.0000   1.0000   1.0000   1.0000   1.0000
     1.0000   1.0000   1.0000   1.0000   1.0000   1.0000   1.0000   1.0000
     1.0000   1.0000   1.0000   1.0000   1.0000   1.0000   1.0000   1.0000
     1.0000   1.0000   1.0000   1.0000   1.0000   1.0000   1.0000   1.0000
     1.0000   1.0000   1.0000   1.0000   1.0000   1.0000   1.0000   1.0000
     1.0000   1.0000   1.0000   1.0000   1.0000   1.0000   1.0000   1.0000
     1.0000   1.0000   1.0000   1.0000   1.0000   1.0000   1.0000   1.0000
     1.0000   1.0000   1.0000   1.0000   1.0000   1.0000   1.0000   1.0000
     1.0000   1.0000   1.0000   1.0000   1.0000   1.0000   1.0000   1.0000
     1.0000   1.0000   1.0000   1.0000   1.0000   1.0000   0.0000   0.0000
     0.0000   0.0000   0.0000   0.0000   0.0000   0.0000   0.0000   0.0000
     0.0000   0.0000   0.0000   0.0000   0.0000   0.0000   0.0000   0.0000
     0.0000   0.0000   0.0000   0.0000

          k = 0.4720-0.1946 0.0000 ( 70164 PWs)   bands (ev):

   -15.3131 -15.0813 -14.6149 -14.3540 -14.2298 -14.0855 -13.8361 -13.7365
   -13.6598 -13.6044 -13.5604 -13.5161 -13.3802 -13.2929 -13.2368 -13.2066
   -13.1648  -7.3267  -6.9636  -6.8675  -6.7882  -6.7414  -6.7168  -6.5669
    -6.5556  -6.4541  -6.4233  -6.3536  -6.2650  -6.0091  -5.9491  -5.4188
    -5.2977  -5.2592  -5.1694  -5.1256  -5.1055  -5.0210  -4.8551  -4.7538
    -4.7203  -4.6174  -4.5740  -4.5172  -4.4727  -4.4043  -4.3739  -4.2663
    -4.1176  -4.0281  -3.9687  -3.8223  -3.6074  -3.4653  -3.3557  -3.2737
    -3.2397  -3.1394  -3.1187  -3.0739  -3.0521  -2.9505  -2.9133  -2.7290
    -2.6354  -2.4766  -2.2748  -2.1633  -2.0541  -2.0021  -1.9102  -1.8057
    -1.7377  -1.6945  -1.6197  -1.5658  -1.4614  -1.2701   0.2319   0.3058
     0.9776   1.0557   1.2503   1.3292   1.4263   1.4676   1.5013   1.6152
     1.6889   1.7552   1.8107   1.8771   1.8916   1.9486   2.0222   2.1259
     2.1484   2.2317   2.2955   2.3840

     occupation numbers 
     1.0000   1.0000   1.0000   1.0000   1.0000   1.0000   1.0000   1.0000
     1.0000   1.0000   1.0000   1.0000   1.0000   1.0000   1.0000   1.0000
     1.0000   1.0000   1.0000   1.0000   1.0000   1.0000   1.0000   1.0000
     1.0000   1.0000   1.0000   1.0000   1.0000   1.0000   1.0000   1.0000
     1.0000   1.0000   1.0000   1.0000   1.0000   1.0000   1.0000   1.0000
     1.0000   1.0000   1.0000   1.0000   1.0000   1.0000   1.0000   1.0000
     1.0000   1.0000   1.0000   1.0000   1.0000   1.0000   1.0000   1.0000
     1.0000   1.0000   1.0000   1.0000   1.0000   1.0000   1.0000   1.0000
     1.0000   1.0000   1.0000   1.0000   1.0000   1.0000   1.0000   1.0000
     1.0000   1.0000   1.0000   1.0000   1.0000   1.0000   0.0000   0.0000
     0.0000   0.0000   0.0000   0.0000   0.0000   0.0000   0.0000   0.0000
     0.0000   0.0000   0.0000   0.0000   0.0000   0.0000   0.0000   0.0000
     0.0000   0.0000   0.0000   0.0000

          k = 0.4383-0.2141 0.0000 ( 70190 PWs)   bands (ev):

   -15.3375 -15.0579 -14.5605 -14.4033 -14.2428 -14.0741 -13.8126 -13.7365
   -13.6871 -13.6249 -13.5552 -13.5031 -13.3797 -13.2964 -13.2492 -13.1999
   -13.1550  -7.3228  -6.9319  -6.8685  -6.7856  -6.7586  -6.7329  -6.5619
    -6.5497  -6.4618  -6.4127  -6.3612  -6.2595  -5.9935  -5.9560  -5.4142
    -5.2729  -5.2262  -5.1727  -5.1504  -5.1231  -5.0592  -4.8512  -4.7796
    -4.7609  -4.6109  -4.5650  -4.4929  -4.4714  -4.3975  -4.3726  -4.2738
    -4.1118  -4.0530  -3.9599  -3.8578  -3.6128  -3.4193  -3.3376  -3.2743
    -3.2251  -3.1318  -3.1082  -3.0570  -3.0207  -2.9664  -2.9085  -2.7441
    -2.6378  -2.4787  -2.2947  -2.1328  -2.0685  -2.0031  -1.9489  -1.8210
    -1.7460  -1.7063  -1.6099  -1.5480  -1.4610  -1.2639   0.2476   0.2848
     0.9799   1.0486   1.2462   1.3478   1.4117   1.4512   1.4972   1.6281
     1.6868   1.7476   1.8215   1.8906   1.9005   1.9567   2.0154   2.1123
     2.1272   2.2283   2.3040   2.3966

     occupation numbers 
     1.0000   1.0000   1.0000   1.0000   1.0000   1.0000   1.0000   1.0000
     1.0000   1.0000   1.0000   1.0000   1.0000   1.0000   1.0000   1.0000
     1.0000   1.0000   1.0000   1.0000   1.0000   1.0000   1.0000   1.0000
     1.0000   1.0000   1.0000   1.0000   1.0000   1.0000   1.0000   1.0000
     1.0000   1.0000   1.0000   1.0000   1.0000   1.0000   1.0000   1.0000
     1.0000   1.0000   1.0000   1.0000   1.0000   1.0000   1.0000   1.0000
     1.0000   1.0000   1.0000   1.0000   1.0000   1.0000   1.0000   1.0000
     1.0000   1.0000   1.0000   1.0000   1.0000   1.0000   1.0000   1.0000
     1.0000   1.0000   1.0000   1.0000   1.0000   1.0000   1.0000   1.0000
     1.0000   1.0000   1.0000   1.0000   1.0000   1.0000   0.0000   0.0000
     0.0000   0.0000   0.0000   0.0000   0.0000   0.0000   0.0000   0.0000
     0.0000   0.0000   0.0000   0.0000   0.0000   0.0000   0.0000   0.0000
     0.0000   0.0000   0.0000   0.0000

          k =-0.4720-0.7786 0.0000 ( 70162 PWs)   bands (ev):

   -15.2535 -15.1391 -14.6759 -14.3000 -14.2043 -14.1099 -13.8659 -13.7010
   -13.6632 -13.5876 -13.5507 -13.5343 -13.3789 -13.2871 -13.2214 -13.2073
   -13.1892  -7.3329  -6.9844  -6.9157  -6.7592  -6.7225  -6.6845  -6.5982
    -6.5504  -6.4736  -6.4026  -6.3446  -6.2739  -6.0267  -5.9507  -5.4279
    -5.3261  -5.2895  -5.1777  -5.0930  -5.0705  -4.9767  -4.8539  -4.7153
    -4.6548  -4.6302  -4.5907  -4.5263  -4.4743  -4.4546  -4.3612  -4.2598
    -4.0947  -4.0275  -3.9756  -3.7544  -3.6465  -3.4640  -3.3667  -3.3040
    -3.2551  -3.1949  -3.1346  -3.1077  -3.0820  -2.9329  -2.9121  -2.7124
    -2.6341  -2.4718  -2.2483  -2.1975  -2.0338  -1.9841  -1.8685  -1.7769
    -1.7177  -1.6966  -1.6235  -1.5897  -1.4690  -1.2800   0.2170   0.3291
     0.9754   1.0677   1.2553   1.3203   1.4338   1.4749   1.5139   1.6051
     1.6879   1.7657   1.7907   1.8663   1.8690   1.9372   2.0286   2.1603
     2.1855   2.2371   2.2938   2.3259

     occupation numbers 
     1.0000   1.0000   1.0000   1.0000   1.0000   1.0000   1.0000   1.0000
     1.0000   1.0000   1.0000   1.0000   1.0000   1.0000   1.0000   1.0000
     1.0000   1.0000   1.0000   1.0000   1.0000   1.0000   1.0000   1.0000
     1.0000   1.0000   1.0000   1.0000   1.0000   1.0000   1.0000   1.0000
     1.0000   1.0000   1.0000   1.0000   1.0000   1.0000   1.0000   1.0000
     1.0000   1.0000   1.0000   1.0000   1.0000   1.0000   1.0000   1.0000
     1.0000   1.0000   1.0000   1.0000   1.0000   1.0000   1.0000   1.0000
     1.0000   1.0000   1.0000   1.0000   1.0000   1.0000   1.0000   1.0000
     1.0000   1.0000   1.0000   1.0000   1.0000   1.0000   1.0000   1.0000
     1.0000   1.0000   1.0000   1.0000   1.0000   1.0000   0.0000   0.0000
     0.0000   0.0000   0.0000   0.0000   0.0000   0.0000   0.0000   0.0000
     0.0000   0.0000   0.0000   0.0000   0.0000   0.0000   0.0000   0.0000
     0.0000   0.0000   0.0000   0.0000

          k = 0.5057-0.2141 0.0000 ( 70169 PWs)   bands (ev):

   -15.2746 -15.1280 -14.6191 -14.3556 -14.2141 -14.1070 -13.8371 -13.7037
   -13.6587 -13.5903 -13.5663 -13.5365 -13.3806 -13.2770 -13.2241 -13.2143
   -13.1840  -7.3374  -6.9540  -6.8855  -6.7847  -6.7404  -6.7013  -6.5917
    -6.5459  -6.4539  -6.4120  -6.3608  -6.2693  -6.0210  -5.9608  -5.4214
    -5.2910  -5.2570  -5.1648  -5.1177  -5.1049  -5.0116  -4.8429  -4.7326
    -4.6776  -4.6233  -4.5824  -4.5134  -4.4697  -4.4477  -4.3904  -4.2760
    -4.0814  -4.0267  -3.9816  -3.7624  -3.6076  -3.4973  -3.3683  -3.3015
    -3.2434  -3.1521  -3.1292  -3.0900  -3.0695  -2.9440  -2.9215  -2.7275
    -2.6318  -2.4707  -2.2659  -2.1521  -2.0495  -1.9939  -1.9017  -1.7801
    -1.7215  -1.6902  -1.6222  -1.5821  -1.4734  -1.2791   0.2326   0.3088
     0.9718   1.0535   1.2604   1.3433   1.4318   1.4687   1.5008   1.6034
     1.6919   1.7633   1.8022   1.8710   1.8810   1.9380   2.0196   2.1526
     2.1752   2.2433   2.3131   2.3482

     occupation numbers 
     1.0000   1.0000   1.0000   1.0000   1.0000   1.0000   1.0000   1.0000
     1.0000   1.0000   1.0000   1.0000   1.0000   1.0000   1.0000   1.0000
     1.0000   1.0000   1.0000   1.0000   1.0000   1.0000   1.0000   1.0000
     1.0000   1.0000   1.0000   1.0000   1.0000   1.0000   1.0000   1.0000
     1.0000   1.0000   1.0000   1.0000   1.0000   1.0000   1.0000   1.0000
     1.0000   1.0000   1.0000   1.0000   1.0000   1.0000   1.0000   1.0000
     1.0000   1.0000   1.0000   1.0000   1.0000   1.0000   1.0000   1.0000
     1.0000   1.0000   1.0000   1.0000   1.0000   1.0000   1.0000   1.0000
     1.0000   1.0000   1.0000   1.0000   1.0000   1.0000   1.0000   1.0000
     1.0000   1.0000   1.0000   1.0000   1.0000   1.0000   0.0000   0.0000
     0.0000   0.0000   0.0000   0.0000   0.0000   0.0000   0.0000   0.0000
     0.0000   0.0000   0.0000   0.0000   0.0000   0.0000   0.0000   0.0000
     0.0000   0.0000   0.0000   0.0000

          k = 0.4720-0.2336 0.0000 ( 70156 PWs)   bands (ev):

   -15.2970 -15.1094 -14.5659 -14.4064 -14.2246 -14.0993 -13.8130 -13.7149
   -13.6641 -13.6078 -13.5577 -13.5343 -13.3813 -13.2745 -13.2370 -13.2091
   -13.1763  -7.3373  -6.9242  -6.8734  -6.7955  -6.7553  -6.7201  -6.5807
    -6.5457  -6.4403  -6.4224  -6.3679  -6.2659  -6.0118  -5.9669  -5.4182
    -5.2648  -5.2226  -5.1666  -5.1464  -5.1152  -5.0460  -4.8317  -4.7581
    -4.7084  -4.6197  -4.5642  -4.4942  -4.4764  -4.4234  -4.4196  -4.2829
    -4.0709  -4.0305  -3.9870  -3.7902  -3.6055  -3.4653  -3.3672  -3.3023
    -3.2364  -3.1335  -3.1200  -3.0732  -3.0474  -2.9634  -2.9176  -2.7403
    -2.6322  -2.4715  -2.2829  -2.1184  -2.0614  -1.9924  -1.9389  -1.7902
    -1.7272  -1.6882  -1.6209  -1.5709  -1.4741  -1.2759   0.2494   0.2881
     0.9723   1.0447   1.2601   1.3635   1.4185   1.4609   1.4966   1.6075
     1.6924   1.7567   1.8135   1.8793   1.8890   1.9417   2.0141   2.1442
     2.1575   2.2431   2.3246   2.3734

     occupation numbers 
     1.0000   1.0000   1.0000   1.0000   1.0000   1.0000   1.0000   1.0000
     1.0000   1.0000   1.0000   1.0000   1.0000   1.0000   1.0000   1.0000
     1.0000   1.0000   1.0000   1.0000   1.0000   1.0000   1.0000   1.0000
     1.0000   1.0000   1.0000   1.0000   1.0000   1.0000   1.0000   1.0000
     1.0000   1.0000   1.0000   1.0000   1.0000   1.0000   1.0000   1.0000
     1.0000   1.0000   1.0000   1.0000   1.0000   1.0000   1.0000   1.0000
     1.0000   1.0000   1.0000   1.0000   1.0000   1.0000   1.0000   1.0000
     1.0000   1.0000   1.0000   1.0000   1.0000   1.0000   1.0000   1.0000
     1.0000   1.0000   1.0000   1.0000   1.0000   1.0000   1.0000   1.0000
     1.0000   1.0000   1.0000   1.0000   1.0000   1.0000   0.0000   0.0000
     0.0000   0.0000   0.0000   0.0000   0.0000   0.0000   0.0000   0.0000
     0.0000   0.0000   0.0000   0.0000   0.0000   0.0000   0.0000   0.0000
     0.0000   0.0000   0.0000   0.0000

          k = 0.5057-0.2530 0.0000 ( 70172 PWs)   bands (ev):

   -15.2642 -15.1477 -14.5686 -14.4080 -14.2116 -14.1157 -13.8134 -13.7059
   -13.6403 -13.5932 -13.5728 -13.5522 -13.3820 -13.2589 -13.2265 -13.2163
   -13.1934  -7.3446  -6.9176  -6.8790  -6.8001  -6.7637  -6.6954  -6.6043
    -6.5356  -6.4413  -6.4121  -6.3767  -6.2683  -6.0223  -5.9720  -5.4204
    -5.2607  -5.2209  -5.1631  -5.1455  -5.1107  -5.0389  -4.8218  -4.7467
    -4.6679  -4.6239  -4.5718  -4.4949  -4.4737  -4.4627  -4.4293  -4.2878
    -4.0541  -4.0303  -3.9869  -3.7251  -3.5999  -3.5087  -3.4224  -3.2942
    -3.2265  -3.1403  -3.1301  -3.0842  -3.0585  -2.9608  -2.9219  -2.7385
    -2.6293  -2.4681  -2.2768  -2.1109  -2.0580  -1.9871  -1.9335  -1.7691
    -1.7158  -1.6913  -1.6172  -1.5843  -1.4833  -1.2823   0.2503   0.2897
     0.9685   1.0428   1.2682   1.3726   1.4224   1.4644   1.4936   1.5987
     1.6954   1.7617   1.8086   1.8742   1.8807   1.9358   2.0122   2.1585
     2.1849   2.2519   2.3381   2.3408

     occupation numbers 
     1.0000   1.0000   1.0000   1.0000   1.0000   1.0000   1.0000   1.0000
     1.0000   1.0000   1.0000   1.0000   1.0000   1.0000   1.0000   1.0000
     1.0000   1.0000   1.0000   1.0000   1.0000   1.0000   1.0000   1.0000
     1.0000   1.0000   1.0000   1.0000   1.0000   1.0000   1.0000   1.0000
     1.0000   1.0000   1.0000   1.0000   1.0000   1.0000   1.0000   1.0000
     1.0000   1.0000   1.0000   1.0000   1.0000   1.0000   1.0000   1.0000
     1.0000   1.0000   1.0000   1.0000   1.0000   1.0000   1.0000   1.0000
     1.0000   1.0000   1.0000   1.0000   1.0000   1.0000   1.0000   1.0000
     1.0000   1.0000   1.0000   1.0000   1.0000   1.0000   1.0000   1.0000
     1.0000   1.0000   1.0000   1.0000   1.0000   1.0000   0.0000   0.0000
     0.0000   0.0000   0.0000   0.0000   0.0000   0.0000   0.0000   0.0000
     0.0000   0.0000   0.0000   0.0000   0.0000   0.0000   0.0000   0.0000
     0.0000   0.0000   0.0000   0.0000

     highest occupied, lowest unoccupied level (ev):    -1.0925    0.1654

     Writing output data file ./out/3x3_MoS2.save/

     init_run     :      2.58s CPU      2.89s WALL (       1 calls)
     electrons    :  53147.26s CPU  53754.29s WALL (       1 calls)

     Called by init_run:
     wfcinit      :      0.00s CPU      0.00s WALL (       1 calls)
     wfcinit:atom :      7.14s CPU     13.43s WALL (     452 calls)
     wfcinit:wfcr :   9025.21s CPU   9122.58s WALL (     452 calls)
     potinit      :      0.19s CPU      0.43s WALL (       1 calls)
     hinit0       :      0.78s CPU      0.80s WALL (       1 calls)

     Called by electrons:
     c_bands      :  53147.19s CPU  53754.19s WALL (       1 calls)
     v_of_rho     :      0.08s CPU      0.09s WALL (       1 calls)
     v_h          :      0.04s CPU      0.04s WALL (       1 calls)
     v_xc         :      0.04s CPU      0.04s WALL (       1 calls)

     Called by c_bands:
     init_us_2    :      5.14s CPU      5.25s WALL (     452 calls)
     cegterg      :  43537.72s CPU  44032.79s WALL (     946 calls)

     Called by sum_band:

     Called by *egterg:
     h_psi        :  20068.68s CPU  20561.92s WALL (   18600 calls)
     g_psi        :     17.83s CPU     17.99s WALL (   17202 calls)
     cdiaghg      :   1743.11s CPU   1745.37s WALL (   17654 calls)
     cegterg:over :  11616.37s CPU  11650.78s WALL (   17202 calls)
     cegterg:upda :   3581.92s CPU   3606.59s WALL (   17202 calls)
     cegterg:last :   2313.64s CPU   2321.66s WALL (    3207 calls)

     Called by h_psi:
     h_psi:calbec :  10788.15s CPU  10815.34s WALL (   18600 calls)
     vloc_psi     :   5770.03s CPU   6211.90s WALL (   18600 calls)
     add_vuspsi   :   3480.94s CPU   3490.85s WALL (   18600 calls)

     General routines
     calbec       :  10787.98s CPU  10815.24s WALL (   18600 calls)
     fft          :      0.13s CPU      0.14s WALL (       4 calls)
     ffts         :      0.01s CPU      0.01s WALL (       1 calls)
     fftw         :   5364.85s CPU   5783.01s WALL ( 2196126 calls)
     interpolate  :      0.05s CPU      0.05s WALL (       1 calls)
     davcio       :      0.42s CPU      6.57s WALL (     904 calls)

     Parallel routines
     fft_scatt_xy :    556.85s CPU    590.79s WALL ( 2196131 calls)
     fft_scatt_yz :   1924.63s CPU   2119.05s WALL ( 2196131 calls)

     PWSCF        :     14h46m CPU     14h59m WALL


   This run was terminated on:  18:40:51  16May2022            

=------------------------------------------------------------------------------=
   JOB DONE.
=------------------------------------------------------------------------------=
