
     Program POST-PROC v.6.5Max starts on  7Jun2022 at 20:27:32 

     This program is part of the open-source Quantum ESPRESSO suite
     for quantum simulation of materials; please cite
         "P. Giannozzi et al., J. Phys.:Condens. Matter 21 395502 (2009);
         "P. Giannozzi et al., J. Phys.:Condens. Matter 29 465901 (2017);
          URL http://www.quantum-espresso.org", 
     in publications or presentations arising from this work. More details at
     http://www.quantum-espresso.org/quote

     Parallel version (MPI), running on    16 processors

     MPI processes distributed on     1 nodes
     R & G space division:  proc/nbgrp/npool/nimage =      16

     Reading xml data from directory:

     ./out/3x3_MoS2_mo.save/

     IMPORTANT: XC functional enforced from input :
     Exchange-correlation= PW
                           (   1   4   0   0   0   0   0)
     Any further DFT definition will be discarded
     Please, verify this is what you really want

               file Mo.pw-mt_fhi.UPF: wavefunction(s)  4f renormalized
               file S.pw-mt_fhi.UPF: wavefunction(s)  4f renormalized

     Parallelization info
     --------------------
     sticks:   dense  smooth     PW     G-vecs:    dense   smooth      PW
     Min         795     318     84               141338    35744    4894
     Max         797     319     85               141341    35751    4905
     Sum       12727    5089   1357              2261433   571933   78355


     Calling punch_plot, plot_num =   5
     Use the true wfcs
     Sample bias          = -1.0000 eV

     Occupied bands:     78

       Fermi energy:      -0.84 eV

         Gap energy:      -0.03 eV
     STM          :     97.80s CPU    133.22s WALL (       1 calls)
     Writing data to file  3x3_mos2_mo-1.0
     Reading data from file  3x3_mos2_mo-1.0

     Writing data to be plotted to file 3x3_MoS2_mo-1.0.xsf
     Plot Type: 3D                     Output format: XCrySDen     

     POST-PROC    :   2m 0.95s CPU   2m37.92s WALL


   This run was terminated on:  20:30:10   7Jun2022            

=------------------------------------------------------------------------------=
   JOB DONE.
=------------------------------------------------------------------------------=
