
     Program BANDS v.6.5Max starts on  3Jun2022 at 23:42:18 

     This program is part of the open-source Quantum ESPRESSO suite
     for quantum simulation of materials; please cite
         "P. Giannozzi et al., J. Phys.:Condens. Matter 21 395502 (2009);
         "P. Giannozzi et al., J. Phys.:Condens. Matter 29 465901 (2017);
          URL http://www.quantum-espresso.org", 
     in publications or presentations arising from this work. More details at
     http://www.quantum-espresso.org/quote

     Parallel version (MPI), running on    16 processors

     MPI processes distributed on     1 nodes
     R & G space division:  proc/nbgrp/npool/nimage =      16

     Reading xml data from directory:

     ./out/3x3_MoS2_mo.save/

     IMPORTANT: XC functional enforced from input :
     Exchange-correlation= PW
                           (   1   4   0   0   0   0   0)
     Any further DFT definition will be discarded
     Please, verify this is what you really want

               file Mo.pw-mt_fhi.UPF: wavefunction(s)  4f renormalized
               file S.pw-mt_fhi.UPF: wavefunction(s)  4f renormalized

     Parallelization info
     --------------------
     sticks:   dense  smooth     PW     G-vecs:    dense   smooth      PW
     Min         795     318     84               141338    35744    4894
     Max         797     319     85               141341    35751    4905
     Sum       12727    5089   1357              2261433   571933   78355

     Reading collected, re-writing distributed wavefunctions
     high-symmetry point:  0.0000 0.0000 0.0000   x coordinate   0.0000
     high-symmetry point:  0.5010-0.2893 0.0000   x coordinate   0.5785
     high-symmetry point:  0.3339-0.5787 0.0000   x coordinate   0.9127
     high-symmetry point:  0.0000 0.0000 0.0000   x coordinate   1.5808

     Plottable bands (eV) written to file 3x3_MoS2_mo.bands.dat.gnu
     Bands written to file 3x3_MoS2_mo.bands.dat

 **************************************************************************

                    xk=(   0.00000,   0.00000,   0.00000  )

     point group C_1 (1)    
     there are  1 classes
     the character table:

       E    
A      1.00

     the symmetry operations in each class and the name of the first element:

     E        1
                                                                 

     Band symmetry, C_1 (1)     point group:

     e(  1 -  1) =    -15.76128  eV     1   --> A              
     e(  2 -  2) =    -14.56040  eV     1   --> A              
     e(  3 -  3) =    -14.53555  eV     1   --> A              
     e(  4 -  4) =    -14.53391  eV     1   --> A              
     e(  5 -  5) =    -14.52874  eV     1   --> A              
     e(  6 -  6) =    -14.22101  eV     1   --> A              
     e(  7 -  7) =    -14.22065  eV     1   --> A              
     e(  8 -  8) =    -13.87427  eV     1   --> A              
     e(  9 -  9) =    -13.87299  eV     1   --> A              
     e( 10 - 10) =    -13.86383  eV     1   --> A              
     e( 11 - 11) =    -13.77169  eV     1   --> A              
     e( 12 - 12) =    -13.60113  eV     1   --> A              
     e( 13 - 13) =    -13.60051  eV     1   --> A              
     e( 14 - 14) =    -13.34392  eV     1   --> A              
     e( 15 - 15) =    -13.17270  eV     1   --> A              
     e( 16 - 16) =    -13.17147  eV     1   --> A              
     e( 17 - 17) =    -12.76921  eV     1   --> A              
     e( 18 - 18) =    -12.76682  eV     1   --> A              
     e( 19 - 19) =     -7.22464  eV     1   --> A              
     e( 20 - 20) =     -6.96813  eV     1   --> A              
     e( 21 - 21) =     -6.96696  eV     1   --> A              
     e( 22 - 22) =     -6.93605  eV     1   --> A              
     e( 23 - 23) =     -6.93512  eV     1   --> A              
     e( 24 - 24) =     -6.92900  eV     1   --> A              
     e( 25 - 25) =     -6.72391  eV     1   --> A              
     e( 26 - 26) =     -6.54298  eV     1   --> A              
     e( 27 - 27) =     -6.54132  eV     1   --> A              
     e( 28 - 28) =     -6.24855  eV     1   --> A              
     e( 29 - 29) =     -5.93078  eV     1   --> A              
     e( 30 - 30) =     -5.91126  eV     1   --> A              
     e( 31 - 31) =     -5.84626  eV     1   --> A              
     e( 32 - 32) =     -5.84409  eV     1   --> A              
     e( 33 - 33) =     -5.73442  eV     1   --> A              
     e( 34 - 34) =     -5.73400  eV     1   --> A              
     e( 35 - 35) =     -5.68397  eV     1   --> A              
     e( 36 - 36) =     -5.61804  eV     1   --> A              
     e( 37 - 37) =     -5.61757  eV     1   --> A              
     e( 38 - 38) =     -5.43277  eV     1   --> A              
     e( 39 - 39) =     -5.43114  eV     1   --> A              
     e( 40 - 40) =     -5.31946  eV     1   --> A              
     e( 41 - 41) =     -5.31719  eV     1   --> A              
     e( 42 - 42) =     -5.14474  eV     1   --> A              
     e( 43 - 43) =     -4.76319  eV     1   --> A              
     e( 44 - 44) =     -4.76081  eV     1   --> A              
     e( 45 - 45) =     -4.72621  eV     1   --> A              
     e( 46 - 46) =     -4.60934  eV     1   --> A              
     e( 47 - 47) =     -4.37297  eV     1   --> A              
     e( 48 - 48) =     -4.31891  eV     1   --> A              
     e( 49 - 49) =     -4.31802  eV     1   --> A              
     e( 50 - 50) =     -4.30497  eV     1   --> A              
     e( 51 - 51) =     -4.19328  eV     1   --> A              
     e( 52 - 52) =     -3.81045  eV     1   --> A              
     e( 53 - 53) =     -3.80832  eV     1   --> A              
     e( 54 - 54) =     -3.72706  eV     1   --> A              
     e( 55 - 55) =     -3.72522  eV     1   --> A              
     e( 56 - 56) =     -3.38180  eV     1   --> A              
     e( 57 - 57) =     -3.38090  eV     1   --> A              
     e( 58 - 58) =     -3.36425  eV     1   --> A              
     e( 59 - 59) =     -3.15018  eV     1   --> A              
     e( 60 - 60) =     -3.07949  eV     1   --> A              
     e( 61 - 61) =     -3.07909  eV     1   --> A              
     e( 62 - 62) =     -2.90991  eV     1   --> A              
     e( 63 - 63) =     -2.90892  eV     1   --> A              
     e( 64 - 64) =     -2.83938  eV     1   --> A              
     e( 65 - 65) =     -2.68623  eV     1   --> A              
     e( 66 - 66) =     -2.68374  eV     1   --> A              
     e( 67 - 67) =     -2.61358  eV     1   --> A              
     e( 68 - 68) =     -2.52318  eV     1   --> A              
     e( 69 - 69) =     -2.52224  eV     1   --> A              
     e( 70 - 70) =     -2.49401  eV     1   --> A              
     e( 71 - 71) =     -2.41083  eV     1   --> A              
     e( 72 - 72) =     -2.40914  eV     1   --> A              
     e( 73 - 73) =     -2.38591  eV     1   --> A              
     e( 74 - 74) =     -1.88510  eV     1   --> A              
     e( 75 - 75) =     -1.86061  eV     1   --> A              
     e( 76 - 76) =     -1.85912  eV     1   --> A              
     e( 77 - 77) =     -0.85740  eV     1   --> A              
     e( 78 - 78) =     -0.85578  eV     1   --> A              
     e( 79 - 79) =     -0.75908  eV     1   --> A              
     e( 80 - 80) =     -0.44020  eV     1   --> A              
     e( 81 - 81) =     -0.43997  eV     1   --> A              
     e( 82 - 82) =      0.63383  eV     1   --> A              
     e( 83 - 83) =      0.69710  eV     1   --> A              
     e( 84 - 84) =      1.00892  eV     1   --> A              
     e( 85 - 85) =      1.02126  eV     1   --> A              
     e( 86 - 86) =      1.02294  eV     1   --> A              
     e( 87 - 87) =      1.09554  eV     1   --> A              
     e( 88 - 88) =      1.11311  eV     1   --> A              
     e( 89 - 89) =      1.11614  eV     1   --> A              
     e( 90 - 90) =      1.18401  eV     1   --> A              
     e( 91 - 91) =      1.27503  eV     1   --> A              
     e( 92 - 92) =      1.27754  eV     1   --> A              
     e( 93 - 93) =      1.75439  eV     1   --> A              
     e( 94 - 94) =      1.75817  eV     1   --> A              
     e( 95 - 95) =      1.89971  eV     1   --> A              
     e( 96 - 96) =      1.90083  eV     1   --> A              
     e( 97 - 97) =      2.03715  eV     1   --> A              
     e( 98 - 98) =      2.03778  eV     1   --> A              
     e( 99 - 99) =      2.25596  eV     1   --> A              
     e(100 -100) =      2.28078  eV     1   --> A              

 **************************************************************************

 **************************************************************************

                    xk=(   0.01392,  -0.00804,   0.00000  )

     Band symmetry, C_1 (1)     point group:

     e(  1 -  1) =    -15.76097  eV     1   --> A              
     e(  2 -  2) =    -14.56022  eV     1   --> A              
     e(  3 -  3) =    -14.54978  eV     1   --> A              
     e(  4 -  4) =    -14.53556  eV     1   --> A              
     e(  5 -  5) =    -14.51446  eV     1   --> A              
     e(  6 -  6) =    -14.22059  eV     1   --> A              
     e(  7 -  7) =    -14.21993  eV     1   --> A              
     e(  8 -  8) =    -13.87974  eV     1   --> A              
     e(  9 -  9) =    -13.87407  eV     1   --> A              
     e( 10 - 10) =    -13.85772  eV     1   --> A              
     e( 11 - 11) =    -13.77099  eV     1   --> A              
     e( 12 - 12) =    -13.60102  eV     1   --> A              
     e( 13 - 13) =    -13.60054  eV     1   --> A              
     e( 14 - 14) =    -13.34360  eV     1   --> A              
     e( 15 - 15) =    -13.17286  eV     1   --> A              
     e( 16 - 16) =    -13.17165  eV     1   --> A              
     e( 17 - 17) =    -12.76924  eV     1   --> A              
     e( 18 - 18) =    -12.76690  eV     1   --> A              
     e( 19 - 19) =     -7.22444  eV     1   --> A              
     e( 20 - 20) =     -6.96784  eV     1   --> A              
     e( 21 - 21) =     -6.96671  eV     1   --> A              
     e( 22 - 22) =     -6.94868  eV     1   --> A              
     e( 23 - 23) =     -6.93575  eV     1   --> A              
     e( 24 - 24) =     -6.91634  eV     1   --> A              
     e( 25 - 25) =     -6.72471  eV     1   --> A              
     e( 26 - 26) =     -6.54277  eV     1   --> A              
     e( 27 - 27) =     -6.54082  eV     1   --> A              
     e( 28 - 28) =     -6.25133  eV     1   --> A              
     e( 29 - 29) =     -5.93868  eV     1   --> A              
     e( 30 - 30) =     -5.91545  eV     1   --> A              
     e( 31 - 31) =     -5.84034  eV     1   --> A              
     e( 32 - 32) =     -5.83927  eV     1   --> A              
     e( 33 - 33) =     -5.73965  eV     1   --> A              
     e( 34 - 34) =     -5.73383  eV     1   --> A              
     e( 35 - 35) =     -5.68424  eV     1   --> A              
     e( 36 - 36) =     -5.61619  eV     1   --> A              
     e( 37 - 37) =     -5.60968  eV     1   --> A              
     e( 38 - 38) =     -5.43266  eV     1   --> A              
     e( 39 - 39) =     -5.43075  eV     1   --> A              
     e( 40 - 40) =     -5.31894  eV     1   --> A              
     e( 41 - 41) =     -5.31664  eV     1   --> A              
     e( 42 - 42) =     -5.14411  eV     1   --> A              
     e( 43 - 43) =     -4.76315  eV     1   --> A              
     e( 44 - 44) =     -4.76055  eV     1   --> A              
     e( 45 - 45) =     -4.72581  eV     1   --> A              
     e( 46 - 46) =     -4.60988  eV     1   --> A              
     e( 47 - 47) =     -4.37456  eV     1   --> A              
     e( 48 - 48) =     -4.31979  eV     1   --> A              
     e( 49 - 49) =     -4.31791  eV     1   --> A              
     e( 50 - 50) =     -4.30559  eV     1   --> A              
     e( 51 - 51) =     -4.19324  eV     1   --> A              
     e( 52 - 52) =     -3.81090  eV     1   --> A              
     e( 53 - 53) =     -3.80804  eV     1   --> A              
     e( 54 - 54) =     -3.72712  eV     1   --> A              
     e( 55 - 55) =     -3.72502  eV     1   --> A              
     e( 56 - 56) =     -3.39327  eV     1   --> A              
     e( 57 - 57) =     -3.38127  eV     1   --> A              
     e( 58 - 58) =     -3.35352  eV     1   --> A              
     e( 59 - 59) =     -3.15144  eV     1   --> A              
     e( 60 - 60) =     -3.07816  eV     1   --> A              
     e( 61 - 61) =     -3.07695  eV     1   --> A              
     e( 62 - 62) =     -2.90883  eV     1   --> A              
     e( 63 - 63) =     -2.90847  eV     1   --> A              
     e( 64 - 64) =     -2.84140  eV     1   --> A              
     e( 65 - 65) =     -2.68768  eV     1   --> A              
     e( 66 - 66) =     -2.68523  eV     1   --> A              
     e( 67 - 67) =     -2.61327  eV     1   --> A              
     e( 68 - 68) =     -2.52687  eV     1   --> A              
     e( 69 - 69) =     -2.52059  eV     1   --> A              
     e( 70 - 70) =     -2.49157  eV     1   --> A              
     e( 71 - 71) =     -2.40981  eV     1   --> A              
     e( 72 - 72) =     -2.40752  eV     1   --> A              
     e( 73 - 73) =     -2.38534  eV     1   --> A              
     e( 74 - 74) =     -1.88486  eV     1   --> A              
     e( 75 - 75) =     -1.86084  eV     1   --> A              
     e( 76 - 76) =     -1.85874  eV     1   --> A              
     e( 77 - 77) =     -0.85818  eV     1   --> A              
     e( 78 - 78) =     -0.85622  eV     1   --> A              
     e( 79 - 79) =     -0.75850  eV     1   --> A              
     e( 80 - 80) =     -0.44111  eV     1   --> A              
     e( 81 - 81) =     -0.44021  eV     1   --> A              
     e( 82 - 82) =      0.63487  eV     1   --> A              
     e( 83 - 83) =      0.69756  eV     1   --> A              
     e( 84 - 84) =      1.00773  eV     1   --> A              
     e( 85 - 85) =      1.01971  eV     1   --> A              
     e( 86 - 86) =      1.02215  eV     1   --> A              
     e( 87 - 87) =      1.09169  eV     1   --> A              
     e( 88 - 88) =      1.11527  eV     1   --> A              
     e( 89 - 89) =      1.12118  eV     1   --> A              
     e( 90 - 90) =      1.18350  eV     1   --> A              
     e( 91 - 91) =      1.27555  eV     1   --> A              
     e( 92 - 92) =      1.27883  eV     1   --> A              
     e( 93 - 93) =      1.75399  eV     1   --> A              
     e( 94 - 94) =      1.75862  eV     1   --> A              
     e( 95 - 95) =      1.89947  eV     1   --> A              
     e( 96 - 96) =      1.90047  eV     1   --> A              
     e( 97 - 97) =      2.03649  eV     1   --> A              
     e( 98 - 98) =      2.03720  eV     1   --> A              
     e( 99 - 99) =      2.24885  eV     1   --> A              
     e(100 -100) =      2.27976  eV     1   --> A              

 **************************************************************************

 **************************************************************************

                    xk=(   0.02783,  -0.01607,   0.00000  )

     Band symmetry, C_1 (1)     point group:

     e(  1 -  1) =    -15.76007  eV     1   --> A              
     e(  2 -  2) =    -14.56866  eV     1   --> A              
     e(  3 -  3) =    -14.55968  eV     1   --> A              
     e(  4 -  4) =    -14.53703  eV     1   --> A              
     e(  5 -  5) =    -14.49903  eV     1   --> A              
     e(  6 -  6) =    -14.21928  eV     1   --> A              
     e(  7 -  7) =    -14.21786  eV     1   --> A              
     e(  8 -  8) =    -13.88961  eV     1   --> A              
     e(  9 -  9) =    -13.87444  eV     1   --> A              
     e( 10 - 10) =    -13.84885  eV     1   --> A              
     e( 11 - 11) =    -13.76894  eV     1   --> A              
     e( 12 - 12) =    -13.60104  eV     1   --> A              
     e( 13 - 13) =    -13.60026  eV     1   --> A              
     e( 14 - 14) =    -13.34266  eV     1   --> A              
     e( 15 - 15) =    -13.17336  eV     1   --> A              
     e( 16 - 16) =    -13.17217  eV     1   --> A              
     e( 17 - 17) =    -12.76936  eV     1   --> A              
     e( 18 - 18) =    -12.76714  eV     1   --> A              
     e( 19 - 19) =     -7.22382  eV     1   --> A              
     e( 20 - 20) =     -6.96888  eV     1   --> A              
     e( 21 - 21) =     -6.96666  eV     1   --> A              
     e( 22 - 22) =     -6.96194  eV     1   --> A              
     e( 23 - 23) =     -6.93663  eV     1   --> A              
     e( 24 - 24) =     -6.90144  eV     1   --> A              
     e( 25 - 25) =     -6.72704  eV     1   --> A              
     e( 26 - 26) =     -6.54224  eV     1   --> A              
     e( 27 - 27) =     -6.53932  eV     1   --> A              
     e( 28 - 28) =     -6.25939  eV     1   --> A              
     e( 29 - 29) =     -5.95744  eV     1   --> A              
     e( 30 - 30) =     -5.92594  eV     1   --> A              
     e( 31 - 31) =     -5.82852  eV     1   --> A              
     e( 32 - 32) =     -5.82715  eV     1   --> A              
     e( 33 - 33) =     -5.75345  eV     1   --> A              
     e( 34 - 34) =     -5.73232  eV     1   --> A              
     e( 35 - 35) =     -5.68190  eV     1   --> A              
     e( 36 - 36) =     -5.61204  eV     1   --> A              
     e( 37 - 37) =     -5.58973  eV     1   --> A              
     e( 38 - 38) =     -5.43240  eV     1   --> A              
     e( 39 - 39) =     -5.42947  eV     1   --> A              
     e( 40 - 40) =     -5.31746  eV     1   --> A              
     e( 41 - 41) =     -5.31495  eV     1   --> A              
     e( 42 - 42) =     -5.14223  eV     1   --> A              
     e( 43 - 43) =     -4.76304  eV     1   --> A              
     e( 44 - 44) =     -4.75973  eV     1   --> A              
     e( 45 - 45) =     -4.72464  eV     1   --> A              
     e( 46 - 46) =     -4.61147  eV     1   --> A              
     e( 47 - 47) =     -4.37912  eV     1   --> A              
     e( 48 - 48) =     -4.32247  eV     1   --> A              
     e( 49 - 49) =     -4.31781  eV     1   --> A              
     e( 50 - 50) =     -4.30743  eV     1   --> A              
     e( 51 - 51) =     -4.19308  eV     1   --> A              
     e( 52 - 52) =     -3.81234  eV     1   --> A              
     e( 53 - 53) =     -3.80716  eV     1   --> A              
     e( 54 - 54) =     -3.72737  eV     1   --> A              
     e( 55 - 55) =     -3.72442  eV     1   --> A              
     e( 56 - 56) =     -3.41151  eV     1   --> A              
     e( 57 - 57) =     -3.38106  eV     1   --> A              
     e( 58 - 58) =     -3.33878  eV     1   --> A              
     e( 59 - 59) =     -3.15468  eV     1   --> A              
     e( 60 - 60) =     -3.07504  eV     1   --> A              
     e( 61 - 61) =     -3.07018  eV     1   --> A              
     e( 62 - 62) =     -2.90737  eV     1   --> A              
     e( 63 - 63) =     -2.90549  eV     1   --> A              
     e( 64 - 64) =     -2.84722  eV     1   --> A              
     e( 65 - 65) =     -2.69194  eV     1   --> A              
     e( 66 - 66) =     -2.68963  eV     1   --> A              
     e( 67 - 67) =     -2.61245  eV     1   --> A              
     e( 68 - 68) =     -2.53554  eV     1   --> A              
     e( 69 - 69) =     -2.51571  eV     1   --> A              
     e( 70 - 70) =     -2.48624  eV     1   --> A              
     e( 71 - 71) =     -2.41045  eV     1   --> A              
     e( 72 - 72) =     -2.39975  eV     1   --> A              
     e( 73 - 73) =     -2.38337  eV     1   --> A              
     e( 74 - 74) =     -1.88415  eV     1   --> A              
     e( 75 - 75) =     -1.86154  eV     1   --> A              
     e( 76 - 76) =     -1.85758  eV     1   --> A              
     e( 77 - 77) =     -0.86059  eV     1   --> A              
     e( 78 - 78) =     -0.85744  eV     1   --> A              
     e( 79 - 79) =     -0.75681  eV     1   --> A              
     e( 80 - 80) =     -0.44388  eV     1   --> A              
     e( 81 - 81) =     -0.44090  eV     1   --> A              
     e( 82 - 82) =      0.63797  eV     1   --> A              
     e( 83 - 83) =      0.69893  eV     1   --> A              
     e( 84 - 84) =      1.00414  eV     1   --> A              
     e( 85 - 85) =      1.01491  eV     1   --> A              
     e( 86 - 86) =      1.02032  eV     1   --> A              
     e( 87 - 87) =      1.08569  eV     1   --> A              
     e( 88 - 88) =      1.12030  eV     1   --> A              
     e( 89 - 89) =      1.13175  eV     1   --> A              
     e( 90 - 90) =      1.18215  eV     1   --> A              
     e( 91 - 91) =      1.27709  eV     1   --> A              
     e( 92 - 92) =      1.28260  eV     1   --> A              
     e( 93 - 93) =      1.75277  eV     1   --> A              
     e( 94 - 94) =      1.75999  eV     1   --> A              
     e( 95 - 95) =      1.89869  eV     1   --> A              
     e( 96 - 96) =      1.89944  eV     1   --> A              
     e( 97 - 97) =      2.03448  eV     1   --> A              
     e( 98 - 98) =      2.03555  eV     1   --> A              
     e( 99 - 99) =      2.23517  eV     1   --> A              
     e(100 -100) =      2.27664  eV     1   --> A              

 **************************************************************************

 **************************************************************************

                    xk=(   0.04175,  -0.02411,   0.00000  )

     Band symmetry, C_1 (1)     point group:

     e(  1 -  1) =    -15.75855  eV     1   --> A              
     e(  2 -  2) =    -14.58848  eV     1   --> A              
     e(  3 -  3) =    -14.55879  eV     1   --> A              
     e(  4 -  4) =    -14.53942  eV     1   --> A              
     e(  5 -  5) =    -14.48499  eV     1   --> A              
     e(  6 -  6) =    -14.21702  eV     1   --> A              
     e(  7 -  7) =    -14.21447  eV     1   --> A              
     e(  8 -  8) =    -13.90011  eV     1   --> A              
     e(  9 -  9) =    -13.87500  eV     1   --> A              
     e( 10 - 10) =    -13.84008  eV     1   --> A              
     e( 11 - 11) =    -13.76556  eV     1   --> A              
     e( 12 - 12) =    -13.60139  eV     1   --> A              
     e( 13 - 13) =    -13.59945  eV     1   --> A              
     e( 14 - 14) =    -13.34113  eV     1   --> A              
     e( 15 - 15) =    -13.17420  eV     1   --> A              
     e( 16 - 16) =    -13.17301  eV     1   --> A              
     e( 17 - 17) =    -12.76957  eV     1   --> A              
     e( 18 - 18) =    -12.76754  eV     1   --> A              
     e( 19 - 19) =     -7.22283  eV     1   --> A              
     e( 20 - 20) =     -6.98339  eV     1   --> A              
     e( 21 - 21) =     -6.96531  eV     1   --> A              
     e( 22 - 22) =     -6.96209  eV     1   --> A              
     e( 23 - 23) =     -6.93800  eV     1   --> A              
     e( 24 - 24) =     -6.88717  eV     1   --> A              
     e( 25 - 25) =     -6.73068  eV     1   --> A              
     e( 26 - 26) =     -6.54150  eV     1   --> A              
     e( 27 - 27) =     -6.53694  eV     1   --> A              
     e( 28 - 28) =     -6.27205  eV     1   --> A              
     e( 29 - 29) =     -5.98085  eV     1   --> A              
     e( 30 - 30) =     -5.93984  eV     1   --> A              
     e( 31 - 31) =     -5.81709  eV     1   --> A              
     e( 32 - 32) =     -5.81563  eV     1   --> A              
     e( 33 - 33) =     -5.76847  eV     1   --> A              
     e( 34 - 34) =     -5.72757  eV     1   --> A              
     e( 35 - 35) =     -5.67519  eV     1   --> A              
     e( 36 - 36) =     -5.60556  eV     1   --> A              
     e( 37 - 37) =     -5.56440  eV     1   --> A              
     e( 38 - 38) =     -5.43209  eV     1   --> A              
     e( 39 - 39) =     -5.42721  eV     1   --> A              
     e( 40 - 40) =     -5.31519  eV     1   --> A              
     e( 41 - 41) =     -5.31192  eV     1   --> A              
     e( 42 - 42) =     -5.13905  eV     1   --> A              
     e( 43 - 43) =     -4.76281  eV     1   --> A              
     e( 44 - 44) =     -4.75830  eV     1   --> A              
     e( 45 - 45) =     -4.72273  eV     1   --> A              
     e( 46 - 46) =     -4.61410  eV     1   --> A              
     e( 47 - 47) =     -4.38619  eV     1   --> A              
     e( 48 - 48) =     -4.32695  eV     1   --> A              
     e( 49 - 49) =     -4.31822  eV     1   --> A              
     e( 50 - 50) =     -4.31038  eV     1   --> A              
     e( 51 - 51) =     -4.19272  eV     1   --> A              
     e( 52 - 52) =     -3.81483  eV     1   --> A              
     e( 53 - 53) =     -3.80567  eV     1   --> A              
     e( 54 - 54) =     -3.72803  eV     1   --> A              
     e( 55 - 55) =     -3.72334  eV     1   --> A              
     e( 56 - 56) =     -3.43040  eV     1   --> A              
     e( 57 - 57) =     -3.38068  eV     1   --> A              
     e( 58 - 58) =     -3.32567  eV     1   --> A              
     e( 59 - 59) =     -3.15871  eV     1   --> A              
     e( 60 - 60) =     -3.07010  eV     1   --> A              
     e( 61 - 61) =     -3.06001  eV     1   --> A              
     e( 62 - 62) =     -2.90527  eV     1   --> A              
     e( 63 - 63) =     -2.90083  eV     1   --> A              
     e( 64 - 64) =     -2.85590  eV     1   --> A              
     e( 65 - 65) =     -2.69875  eV     1   --> A              
     e( 66 - 66) =     -2.69675  eV     1   --> A              
     e( 67 - 67) =     -2.61133  eV     1   --> A              
     e( 68 - 68) =     -2.54634  eV     1   --> A              
     e( 69 - 69) =     -2.50793  eV     1   --> A              
     e( 70 - 70) =     -2.47988  eV     1   --> A              
     e( 71 - 71) =     -2.41241  eV     1   --> A              
     e( 72 - 72) =     -2.38787  eV     1   --> A              
     e( 73 - 73) =     -2.37952  eV     1   --> A              
     e( 74 - 74) =     -1.88304  eV     1   --> A              
     e( 75 - 75) =     -1.86266  eV     1   --> A              
     e( 76 - 76) =     -1.85567  eV     1   --> A              
     e( 77 - 77) =     -0.86466  eV     1   --> A              
     e( 78 - 78) =     -0.85932  eV     1   --> A              
     e( 79 - 79) =     -0.75409  eV     1   --> A              
     e( 80 - 80) =     -0.44844  eV     1   --> A              
     e( 81 - 81) =     -0.44202  eV     1   --> A              
     e( 82 - 82) =      0.64307  eV     1   --> A              
     e( 83 - 83) =      0.70120  eV     1   --> A              
     e( 84 - 84) =      0.99832  eV     1   --> A              
     e( 85 - 85) =      1.00713  eV     1   --> A              
     e( 86 - 86) =      1.01808  eV     1   --> A              
     e( 87 - 87) =      1.08114  eV     1   --> A              
     e( 88 - 88) =      1.12761  eV     1   --> A              
     e( 89 - 89) =      1.14362  eV     1   --> A              
     e( 90 - 90) =      1.18041  eV     1   --> A              
     e( 91 - 91) =      1.27975  eV     1   --> A              
     e( 92 - 92) =      1.28847  eV     1   --> A              
     e( 93 - 93) =      1.75072  eV     1   --> A              
     e( 94 - 94) =      1.76227  eV     1   --> A              
     e( 95 - 95) =      1.89717  eV     1   --> A              
     e( 96 - 96) =      1.89784  eV     1   --> A              
     e( 97 - 97) =      2.03115  eV     1   --> A              
     e( 98 - 98) =      2.03300  eV     1   --> A              
     e( 99 - 99) =      2.21946  eV     1   --> A              
     e(100 -100) =      2.27144  eV     1   --> A              

 **************************************************************************

 **************************************************************************

                    xk=(   0.05567,  -0.03214,   0.00000  )

     Band symmetry, C_1 (1)     point group:

     e(  1 -  1) =    -15.75642  eV     1   --> A              
     e(  2 -  2) =    -14.60908  eV     1   --> A              
     e(  3 -  3) =    -14.55755  eV     1   --> A              
     e(  4 -  4) =    -14.54264  eV     1   --> A              
     e(  5 -  5) =    -14.47255  eV     1   --> A              
     e(  6 -  6) =    -14.21370  eV     1   --> A              
     e(  7 -  7) =    -14.20984  eV     1   --> A              
     e(  8 -  8) =    -13.91096  eV     1   --> A              
     e(  9 -  9) =    -13.87576  eV     1   --> A              
     e( 10 - 10) =    -13.83168  eV     1   --> A              
     e( 11 - 11) =    -13.76093  eV     1   --> A              
     e( 12 - 12) =    -13.60187  eV     1   --> A              
     e( 13 - 13) =    -13.59826  eV     1   --> A              
     e( 14 - 14) =    -13.33904  eV     1   --> A              
     e( 15 - 15) =    -13.17542  eV     1   --> A              
     e( 16 - 16) =    -13.17412  eV     1   --> A              
     e( 17 - 17) =    -12.76987  eV     1   --> A              
     e( 18 - 18) =    -12.76806  eV     1   --> A              
     e( 19 - 19) =     -7.22148  eV     1   --> A              
     e( 20 - 20) =     -7.00033  eV     1   --> A              
     e( 21 - 21) =     -6.96344  eV     1   --> A              
     e( 22 - 22) =     -6.95933  eV     1   --> A              
     e( 23 - 23) =     -6.93969  eV     1   --> A              
     e( 24 - 24) =     -6.87377  eV     1   --> A              
     e( 25 - 25) =     -6.73526  eV     1   --> A              
     e( 26 - 26) =     -6.54063  eV     1   --> A              
     e( 27 - 27) =     -6.53400  eV     1   --> A              
     e( 28 - 28) =     -6.28838  eV     1   --> A              
     e( 29 - 29) =     -6.00604  eV     1   --> A              
     e( 30 - 30) =     -5.95576  eV     1   --> A              
     e( 31 - 31) =     -5.81918  eV     1   --> A              
     e( 32 - 32) =     -5.80974  eV     1   --> A              
     e( 33 - 33) =     -5.76954  eV     1   --> A              
     e( 34 - 34) =     -5.71764  eV     1   --> A              
     e( 35 - 35) =     -5.66501  eV     1   --> A              
     e( 36 - 36) =     -5.59720  eV     1   --> A              
     e( 37 - 37) =     -5.53663  eV     1   --> A              
     e( 38 - 38) =     -5.43171  eV     1   --> A              
     e( 39 - 39) =     -5.42395  eV     1   --> A              
     e( 40 - 40) =     -5.31228  eV     1   --> A              
     e( 41 - 41) =     -5.30739  eV     1   --> A              
     e( 42 - 42) =     -5.13449  eV     1   --> A              
     e( 43 - 43) =     -4.76237  eV     1   --> A              
     e( 44 - 44) =     -4.75621  eV     1   --> A              
     e( 45 - 45) =     -4.72016  eV     1   --> A              
     e( 46 - 46) =     -4.61771  eV     1   --> A              
     e( 47 - 47) =     -4.39525  eV     1   --> A              
     e( 48 - 48) =     -4.33323  eV     1   --> A              
     e( 49 - 49) =     -4.31964  eV     1   --> A              
     e( 50 - 50) =     -4.31434  eV     1   --> A              
     e( 51 - 51) =     -4.19204  eV     1   --> A              
     e( 52 - 52) =     -3.81844  eV     1   --> A              
     e( 53 - 53) =     -3.80361  eV     1   --> A              
     e( 54 - 54) =     -3.72944  eV     1   --> A              
     e( 55 - 55) =     -3.72171  eV     1   --> A              
     e( 56 - 56) =     -3.44888  eV     1   --> A              
     e( 57 - 57) =     -3.38009  eV     1   --> A              
     e( 58 - 58) =     -3.31513  eV     1   --> A              
     e( 59 - 59) =     -3.16237  eV     1   --> A              
     e( 60 - 60) =     -3.06364  eV     1   --> A              
     e( 61 - 61) =     -3.04731  eV     1   --> A              
     e( 62 - 62) =     -2.90212  eV     1   --> A              
     e( 63 - 63) =     -2.89708  eV     1   --> A              
     e( 64 - 64) =     -2.86476  eV     1   --> A              
     e( 65 - 65) =     -2.70793  eV     1   --> A              
     e( 66 - 66) =     -2.70624  eV     1   --> A              
     e( 67 - 67) =     -2.61002  eV     1   --> A              
     e( 68 - 68) =     -2.55803  eV     1   --> A              
     e( 69 - 69) =     -2.49778  eV     1   --> A              
     e( 70 - 70) =     -2.47279  eV     1   --> A              
     e( 71 - 71) =     -2.41575  eV     1   --> A              
     e( 72 - 72) =     -2.37371  eV     1   --> A              
     e( 73 - 73) =     -2.37322  eV     1   --> A              
     e( 74 - 74) =     -1.88164  eV     1   --> A              
     e( 75 - 75) =     -1.86403  eV     1   --> A              
     e( 76 - 76) =     -1.85308  eV     1   --> A              
     e( 77 - 77) =     -0.87035  eV     1   --> A              
     e( 78 - 78) =     -0.86176  eV     1   --> A              
     e( 79 - 79) =     -0.75045  eV     1   --> A              
     e( 80 - 80) =     -0.45472  eV     1   --> A              
     e( 81 - 81) =     -0.44355  eV     1   --> A              
     e( 82 - 82) =      0.65009  eV     1   --> A              
     e( 83 - 83) =      0.70431  eV     1   --> A              
     e( 84 - 84) =      0.99081  eV     1   --> A              
     e( 85 - 85) =      0.99707  eV     1   --> A              
     e( 86 - 86) =      1.01560  eV     1   --> A              
     e( 87 - 87) =      1.07846  eV     1   --> A              
     e( 88 - 88) =      1.13639  eV     1   --> A              
     e( 89 - 89) =      1.15545  eV     1   --> A              
     e( 90 - 90) =      1.17891  eV     1   --> A              
     e( 91 - 91) =      1.28376  eV     1   --> A              
     e( 92 - 92) =      1.29595  eV     1   --> A              
     e( 93 - 93) =      1.74783  eV     1   --> A              
     e( 94 - 94) =      1.76541  eV     1   --> A              
     e( 95 - 95) =      1.89480  eV     1   --> A              
     e( 96 - 96) =      1.89563  eV     1   --> A              
     e( 97 - 97) =      2.02654  eV     1   --> A              
     e( 98 - 98) =      2.02980  eV     1   --> A              
     e( 99 - 99) =      2.20253  eV     1   --> A              
     e(100 -100) =      2.26417  eV     1   --> A              

 **************************************************************************

 **************************************************************************

                    xk=(   0.06959,  -0.04018,   0.00000  )

     Band symmetry, C_1 (1)     point group:

     e(  1 -  1) =    -15.75369  eV     1   --> A              
     e(  2 -  2) =    -14.63035  eV     1   --> A              
     e(  3 -  3) =    -14.55601  eV     1   --> A              
     e(  4 -  4) =    -14.54660  eV     1   --> A              
     e(  5 -  5) =    -14.46186  eV     1   --> A              
     e(  6 -  6) =    -14.20923  eV     1   --> A              
     e(  7 -  7) =    -14.20407  eV     1   --> A              
     e(  8 -  8) =    -13.92206  eV     1   --> A              
     e(  9 -  9) =    -13.87672  eV     1   --> A              
     e( 10 - 10) =    -13.82376  eV     1   --> A              
     e( 11 - 11) =    -13.75515  eV     1   --> A              
     e( 12 - 12) =    -13.60236  eV     1   --> A              
     e( 13 - 13) =    -13.59675  eV     1   --> A              
     e( 14 - 14) =    -13.33645  eV     1   --> A              
     e( 15 - 15) =    -13.17703  eV     1   --> A              
     e( 16 - 16) =    -13.17547  eV     1   --> A              
     e( 17 - 17) =    -12.77032  eV     1   --> A              
     e( 18 - 18) =    -12.76866  eV     1   --> A              
     e( 19 - 19) =     -7.21987  eV     1   --> A              
     e( 20 - 20) =     -7.01755  eV     1   --> A              
     e( 21 - 21) =     -6.96145  eV     1   --> A              
     e( 22 - 22) =     -6.95557  eV     1   --> A              
     e( 23 - 23) =     -6.94136  eV     1   --> A              
     e( 24 - 24) =     -6.86151  eV     1   --> A              
     e( 25 - 25) =     -6.74036  eV     1   --> A              
     e( 26 - 26) =     -6.53979  eV     1   --> A              
     e( 27 - 27) =     -6.53084  eV     1   --> A              
     e( 28 - 28) =     -6.30735  eV     1   --> A              
     e( 29 - 29) =     -6.03172  eV     1   --> A              
     e( 30 - 30) =     -5.97311  eV     1   --> A              
     e( 31 - 31) =     -5.83738  eV     1   --> A              
     e( 32 - 32) =     -5.81001  eV     1   --> A              
     e( 33 - 33) =     -5.75365  eV     1   --> A              
     e( 34 - 34) =     -5.70272  eV     1   --> A              
     e( 35 - 35) =     -5.65236  eV     1   --> A              
     e( 36 - 36) =     -5.58741  eV     1   --> A              
     e( 37 - 37) =     -5.50771  eV     1   --> A              
     e( 38 - 38) =     -5.43121  eV     1   --> A              
     e( 39 - 39) =     -5.41969  eV     1   --> A              
     e( 40 - 40) =     -5.30883  eV     1   --> A              
     e( 41 - 41) =     -5.30123  eV     1   --> A              
     e( 42 - 42) =     -5.12850  eV     1   --> A              
     e( 43 - 43) =     -4.76155  eV     1   --> A              
     e( 44 - 44) =     -4.75343  eV     1   --> A              
     e( 45 - 45) =     -4.71696  eV     1   --> A              
     e( 46 - 46) =     -4.62223  eV     1   --> A              
     e( 47 - 47) =     -4.40592  eV     1   --> A              
     e( 48 - 48) =     -4.34124  eV     1   --> A              
     e( 49 - 49) =     -4.32244  eV     1   --> A              
     e( 50 - 50) =     -4.31922  eV     1   --> A              
     e( 51 - 51) =     -4.19097  eV     1   --> A              
     e( 52 - 52) =     -3.82323  eV     1   --> A              
     e( 53 - 53) =     -3.80102  eV     1   --> A              
     e( 54 - 54) =     -3.73208  eV     1   --> A              
     e( 55 - 55) =     -3.71947  eV     1   --> A              
     e( 56 - 56) =     -3.46617  eV     1   --> A              
     e( 57 - 57) =     -3.37924  eV     1   --> A              
     e( 58 - 58) =     -3.30770  eV     1   --> A              
     e( 59 - 59) =     -3.16474  eV     1   --> A              
     e( 60 - 60) =     -3.05610  eV     1   --> A              
     e( 61 - 61) =     -3.03276  eV     1   --> A              
     e( 62 - 62) =     -2.90097  eV     1   --> A              
     e( 63 - 63) =     -2.89757  eV     1   --> A              
     e( 64 - 64) =     -2.86685  eV     1   --> A              
     e( 65 - 65) =     -2.71938  eV     1   --> A              
     e( 66 - 66) =     -2.71757  eV     1   --> A              
     e( 67 - 67) =     -2.60859  eV     1   --> A              
     e( 68 - 68) =     -2.57019  eV     1   --> A              
     e( 69 - 69) =     -2.48595  eV     1   --> A              
     e( 70 - 70) =     -2.46484  eV     1   --> A              
     e( 71 - 71) =     -2.42012  eV     1   --> A              
     e( 72 - 72) =     -2.36618  eV     1   --> A              
     e( 73 - 73) =     -2.35681  eV     1   --> A              
     e( 74 - 74) =     -1.88025  eV     1   --> A              
     e( 75 - 75) =     -1.86538  eV     1   --> A              
     e( 76 - 76) =     -1.84990  eV     1   --> A              
     e( 77 - 77) =     -0.87765  eV     1   --> A              
     e( 78 - 78) =     -0.86465  eV     1   --> A              
     e( 79 - 79) =     -0.74601  eV     1   --> A              
     e( 80 - 80) =     -0.46264  eV     1   --> A              
     e( 81 - 81) =     -0.44543  eV     1   --> A              
     e( 82 - 82) =      0.65889  eV     1   --> A              
     e( 83 - 83) =      0.70823  eV     1   --> A              
     e( 84 - 84) =      0.98218  eV     1   --> A              
     e( 85 - 85) =      0.98557  eV     1   --> A              
     e( 86 - 86) =      1.01290  eV     1   --> A              
     e( 87 - 87) =      1.07735  eV     1   --> A              
     e( 88 - 88) =      1.14572  eV     1   --> A              
     e( 89 - 89) =      1.16651  eV     1   --> A              
     e( 90 - 90) =      1.17841  eV     1   --> A              
     e( 91 - 91) =      1.28938  eV     1   --> A              
     e( 92 - 92) =      1.30459  eV     1   --> A              
     e( 93 - 93) =      1.74413  eV     1   --> A              
     e( 94 - 94) =      1.76933  eV     1   --> A              
     e( 95 - 95) =      1.89167  eV     1   --> A              
     e( 96 - 96) =      1.89250  eV     1   --> A              
     e( 97 - 97) =      2.02071  eV     1   --> A              
     e( 98 - 98) =      2.02628  eV     1   --> A              
     e( 99 - 99) =      2.18461  eV     1   --> A              
     e(100 -100) =      2.25486  eV     1   --> A              

 **************************************************************************

 **************************************************************************

                    xk=(   0.08350,  -0.04821,   0.00000  )

     Band symmetry, C_1 (1)     point group:

     e(  1 -  1) =    -15.75036  eV     1   --> A              
     e(  2 -  2) =    -14.65221  eV     1   --> A              
     e(  3 -  3) =    -14.55442  eV     1   --> A              
     e(  4 -  4) =    -14.55090  eV     1   --> A              
     e(  5 -  5) =    -14.45302  eV     1   --> A              
     e(  6 -  6) =    -14.20350  eV     1   --> A              
     e(  7 -  7) =    -14.19726  eV     1   --> A              
     e(  8 -  8) =    -13.93338  eV     1   --> A              
     e(  9 -  9) =    -13.87786  eV     1   --> A              
     e( 10 - 10) =    -13.81639  eV     1   --> A              
     e( 11 - 11) =    -13.74831  eV     1   --> A              
     e( 12 - 12) =    -13.60279  eV     1   --> A              
     e( 13 - 13) =    -13.59493  eV     1   --> A              
     e( 14 - 14) =    -13.33341  eV     1   --> A              
     e( 15 - 15) =    -13.17905  eV     1   --> A              
     e( 16 - 16) =    -13.17704  eV     1   --> A              
     e( 17 - 17) =    -12.77097  eV     1   --> A              
     e( 18 - 18) =    -12.76927  eV     1   --> A              
     e( 19 - 19) =     -7.21807  eV     1   --> A              
     e( 20 - 20) =     -7.03474  eV     1   --> A              
     e( 21 - 21) =     -6.96008  eV     1   --> A              
     e( 22 - 22) =     -6.95094  eV     1   --> A              
     e( 23 - 23) =     -6.94224  eV     1   --> A              
     e( 24 - 24) =     -6.85071  eV     1   --> A              
     e( 25 - 25) =     -6.74541  eV     1   --> A              
     e( 26 - 26) =     -6.53916  eV     1   --> A              
     e( 27 - 27) =     -6.52780  eV     1   --> A              
     e( 28 - 28) =     -6.32799  eV     1   --> A              
     e( 29 - 29) =     -6.05723  eV     1   --> A              
     e( 30 - 30) =     -5.99162  eV     1   --> A              
     e( 31 - 31) =     -5.86020  eV     1   --> A              
     e( 32 - 32) =     -5.81486  eV     1   --> A              
     e( 33 - 33) =     -5.73224  eV     1   --> A              
     e( 34 - 34) =     -5.68482  eV     1   --> A              
     e( 35 - 35) =     -5.63793  eV     1   --> A              
     e( 36 - 36) =     -5.57653  eV     1   --> A              
     e( 37 - 37) =     -5.47830  eV     1   --> A              
     e( 38 - 38) =     -5.43056  eV     1   --> A              
     e( 39 - 39) =     -5.41436  eV     1   --> A              
     e( 40 - 40) =     -5.30496  eV     1   --> A              
     e( 41 - 41) =     -5.29332  eV     1   --> A              
     e( 42 - 42) =     -5.12101  eV     1   --> A              
     e( 43 - 43) =     -4.76023  eV     1   --> A              
     e( 44 - 44) =     -4.74990  eV     1   --> A              
     e( 45 - 45) =     -4.71318  eV     1   --> A              
     e( 46 - 46) =     -4.62756  eV     1   --> A              
     e( 47 - 47) =     -4.41790  eV     1   --> A              
     e( 48 - 48) =     -4.35088  eV     1   --> A              
     e( 49 - 49) =     -4.32681  eV     1   --> A              
     e( 50 - 50) =     -4.32494  eV     1   --> A              
     e( 51 - 51) =     -4.18945  eV     1   --> A              
     e( 52 - 52) =     -3.82926  eV     1   --> A              
     e( 53 - 53) =     -3.79795  eV     1   --> A              
     e( 54 - 54) =     -3.73652  eV     1   --> A              
     e( 55 - 55) =     -3.71656  eV     1   --> A              
     e( 56 - 56) =     -3.48150  eV     1   --> A              
     e( 57 - 57) =     -3.37809  eV     1   --> A              
     e( 58 - 58) =     -3.30367  eV     1   --> A              
     e( 59 - 59) =     -3.16524  eV     1   --> A              
     e( 60 - 60) =     -3.04804  eV     1   --> A              
     e( 61 - 61) =     -3.01700  eV     1   --> A              
     e( 62 - 62) =     -2.91413  eV     1   --> A              
     e( 63 - 63) =     -2.89168  eV     1   --> A              
     e( 64 - 64) =     -2.85983  eV     1   --> A              
     e( 65 - 65) =     -2.73283  eV     1   --> A              
     e( 66 - 66) =     -2.73034  eV     1   --> A              
     e( 67 - 67) =     -2.60706  eV     1   --> A              
     e( 68 - 68) =     -2.58272  eV     1   --> A              
     e( 69 - 69) =     -2.47331  eV     1   --> A              
     e( 70 - 70) =     -2.45588  eV     1   --> A              
     e( 71 - 71) =     -2.42476  eV     1   --> A              
     e( 72 - 72) =     -2.35736  eV     1   --> A              
     e( 73 - 73) =     -2.33928  eV     1   --> A              
     e( 74 - 74) =     -1.87946  eV     1   --> A              
     e( 75 - 75) =     -1.86607  eV     1   --> A              
     e( 76 - 76) =     -1.84622  eV     1   --> A              
     e( 77 - 77) =     -0.88651  eV     1   --> A              
     e( 78 - 78) =     -0.86788  eV     1   --> A              
     e( 79 - 79) =     -0.74092  eV     1   --> A              
     e( 80 - 80) =     -0.47206  eV     1   --> A              
     e( 81 - 81) =     -0.44763  eV     1   --> A              
     e( 82 - 82) =      0.66934  eV     1   --> A              
     e( 83 - 83) =      0.71288  eV     1   --> A              
     e( 84 - 84) =      0.97232  eV     1   --> A              
     e( 85 - 85) =      0.97387  eV     1   --> A              
     e( 86 - 86) =      1.00998  eV     1   --> A              
     e( 87 - 87) =      1.07738  eV     1   --> A              
     e( 88 - 88) =      1.15448  eV     1   --> A              
     e( 89 - 89) =      1.17621  eV     1   --> A              
     e( 90 - 90) =      1.18015  eV     1   --> A              
     e( 91 - 91) =      1.29684  eV     1   --> A              
     e( 92 - 92) =      1.31403  eV     1   --> A              
     e( 93 - 93) =      1.73961  eV     1   --> A              
     e( 94 - 94) =      1.77390  eV     1   --> A              
     e( 95 - 95) =      1.88746  eV     1   --> A              
     e( 96 - 96) =      1.88855  eV     1   --> A              
     e( 97 - 97) =      2.01373  eV     1   --> A              
     e( 98 - 98) =      2.02284  eV     1   --> A              
     e( 99 - 99) =      2.16587  eV     1   --> A              
     e(100 -100) =      2.24359  eV     1   --> A              

 **************************************************************************

 **************************************************************************

                    xk=(   0.09742,  -0.05625,   0.00000  )

     Band symmetry, C_1 (1)     point group:

     e(  1 -  1) =    -15.74642  eV     1   --> A              
     e(  2 -  2) =    -14.67457  eV     1   --> A              
     e(  3 -  3) =    -14.55703  eV     1   --> A              
     e(  4 -  4) =    -14.55122  eV     1   --> A              
     e(  5 -  5) =    -14.44606  eV     1   --> A              
     e(  6 -  6) =    -14.19649  eV     1   --> A              
     e(  7 -  7) =    -14.18954  eV     1   --> A              
     e(  8 -  8) =    -13.94487  eV     1   --> A              
     e(  9 -  9) =    -13.87915  eV     1   --> A              
     e( 10 - 10) =    -13.80963  eV     1   --> A              
     e( 11 - 11) =    -13.74055  eV     1   --> A              
     e( 12 - 12) =    -13.60305  eV     1   --> A              
     e( 13 - 13) =    -13.59283  eV     1   --> A              
     e( 14 - 14) =    -13.33000  eV     1   --> A              
     e( 15 - 15) =    -13.18145  eV     1   --> A              
     e( 16 - 16) =    -13.17882  eV     1   --> A              
     e( 17 - 17) =    -12.77187  eV     1   --> A              
     e( 18 - 18) =    -12.76983  eV     1   --> A              
     e( 19 - 19) =     -7.21625  eV     1   --> A              
     e( 20 - 20) =     -7.05167  eV     1   --> A              
     e( 21 - 21) =     -6.96034  eV     1   --> A              
     e( 22 - 22) =     -6.94552  eV     1   --> A              
     e( 23 - 23) =     -6.94124  eV     1   --> A              
     e( 24 - 24) =     -6.84184  eV     1   --> A              
     e( 25 - 25) =     -6.74975  eV     1   --> A              
     e( 26 - 26) =     -6.53905  eV     1   --> A              
     e( 27 - 27) =     -6.52523  eV     1   --> A              
     e( 28 - 28) =     -6.34936  eV     1   --> A              
     e( 29 - 29) =     -6.08213  eV     1   --> A              
     e( 30 - 30) =     -6.01108  eV     1   --> A              
     e( 31 - 31) =     -5.88394  eV     1   --> A              
     e( 32 - 32) =     -5.82257  eV     1   --> A              
     e( 33 - 33) =     -5.70927  eV     1   --> A              
     e( 34 - 34) =     -5.66581  eV     1   --> A              
     e( 35 - 35) =     -5.62226  eV     1   --> A              
     e( 36 - 36) =     -5.56484  eV     1   --> A              
     e( 37 - 37) =     -5.44895  eV     1   --> A              
     e( 38 - 38) =     -5.42973  eV     1   --> A              
     e( 39 - 39) =     -5.40781  eV     1   --> A              
     e( 40 - 40) =     -5.30079  eV     1   --> A              
     e( 41 - 41) =     -5.28349  eV     1   --> A              
     e( 42 - 42) =     -5.11201  eV     1   --> A              
     e( 43 - 43) =     -4.75826  eV     1   --> A              
     e( 44 - 44) =     -4.74556  eV     1   --> A              
     e( 45 - 45) =     -4.70880  eV     1   --> A              
     e( 46 - 46) =     -4.63359  eV     1   --> A              
     e( 47 - 47) =     -4.43094  eV     1   --> A              
     e( 48 - 48) =     -4.36199  eV     1   --> A              
     e( 49 - 49) =     -4.33275  eV     1   --> A              
     e( 50 - 50) =     -4.33147  eV     1   --> A              
     e( 51 - 51) =     -4.18753  eV     1   --> A              
     e( 52 - 52) =     -3.83655  eV     1   --> A              
     e( 53 - 53) =     -3.79446  eV     1   --> A              
     e( 54 - 54) =     -3.74334  eV     1   --> A              
     e( 55 - 55) =     -3.71295  eV     1   --> A              
     e( 56 - 56) =     -3.49415  eV     1   --> A              
     e( 57 - 57) =     -3.37659  eV     1   --> A              
     e( 58 - 58) =     -3.30301  eV     1   --> A              
     e( 59 - 59) =     -3.16363  eV     1   --> A              
     e( 60 - 60) =     -3.04003  eV     1   --> A              
     e( 61 - 61) =     -3.00108  eV     1   --> A              
     e( 62 - 62) =     -2.93090  eV     1   --> A              
     e( 63 - 63) =     -2.88394  eV     1   --> A              
     e( 64 - 64) =     -2.84890  eV     1   --> A              
     e( 65 - 65) =     -2.74770  eV     1   --> A              
     e( 66 - 66) =     -2.74432  eV     1   --> A              
     e( 67 - 67) =     -2.60557  eV     1   --> A              
     e( 68 - 68) =     -2.59572  eV     1   --> A              
     e( 69 - 69) =     -2.46147  eV     1   --> A              
     e( 70 - 70) =     -2.44585  eV     1   --> A              
     e( 71 - 71) =     -2.42806  eV     1   --> A              
     e( 72 - 72) =     -2.34760  eV     1   --> A              
     e( 73 - 73) =     -2.32111  eV     1   --> A              
     e( 74 - 74) =     -1.88002  eV     1   --> A              
     e( 75 - 75) =     -1.86534  eV     1   --> A              
     e( 76 - 76) =     -1.84214  eV     1   --> A              
     e( 77 - 77) =     -0.89688  eV     1   --> A              
     e( 78 - 78) =     -0.87136  eV     1   --> A              
     e( 79 - 79) =     -0.73530  eV     1   --> A              
     e( 80 - 80) =     -0.48287  eV     1   --> A              
     e( 81 - 81) =     -0.45006  eV     1   --> A              
     e( 82 - 82) =      0.68124  eV     1   --> A              
     e( 83 - 83) =      0.71817  eV     1   --> A              
     e( 84 - 84) =      0.96004  eV     1   --> A              
     e( 85 - 85) =      0.96399  eV     1   --> A              
     e( 86 - 86) =      1.00692  eV     1   --> A              
     e( 87 - 87) =      1.07825  eV     1   --> A              
     e( 88 - 88) =      1.16118  eV     1   --> A              
     e( 89 - 89) =      1.18373  eV     1   --> A              
     e( 90 - 90) =      1.18606  eV     1   --> A              
     e( 91 - 91) =      1.30627  eV     1   --> A              
     e( 92 - 92) =      1.32398  eV     1   --> A              
     e( 93 - 93) =      1.73431  eV     1   --> A              
     e( 94 - 94) =      1.77892  eV     1   --> A              
     e( 95 - 95) =      1.88140  eV     1   --> A              
     e( 96 - 96) =      1.88435  eV     1   --> A              
     e( 97 - 97) =      2.00561  eV     1   --> A              
     e( 98 - 98) =      2.01991  eV     1   --> A              
     e( 99 - 99) =      2.14649  eV     1   --> A              
     e(100 -100) =      2.23042  eV     1   --> A              

 **************************************************************************

 **************************************************************************

                    xk=(   0.11134,  -0.06428,   0.00000  )

     Band symmetry, C_1 (1)     point group:

     e(  1 -  1) =    -15.74189  eV     1   --> A              
     e(  2 -  2) =    -14.69736  eV     1   --> A              
     e(  3 -  3) =    -14.56256  eV     1   --> A              
     e(  4 -  4) =    -14.54872  eV     1   --> A              
     e(  5 -  5) =    -14.44094  eV     1   --> A              
     e(  6 -  6) =    -14.18817  eV     1   --> A              
     e(  7 -  7) =    -14.18103  eV     1   --> A              
     e(  8 -  8) =    -13.95651  eV     1   --> A              
     e(  9 -  9) =    -13.88058  eV     1   --> A              
     e( 10 - 10) =    -13.80352  eV     1   --> A              
     e( 11 - 11) =    -13.73197  eV     1   --> A              
     e( 12 - 12) =    -13.60304  eV     1   --> A              
     e( 13 - 13) =    -13.59045  eV     1   --> A              
     e( 14 - 14) =    -13.32628  eV     1   --> A              
     e( 15 - 15) =    -13.18421  eV     1   --> A              
     e( 16 - 16) =    -13.18079  eV     1   --> A              
     e( 17 - 17) =    -12.77301  eV     1   --> A              
     e( 18 - 18) =    -12.77032  eV     1   --> A              
     e( 19 - 19) =     -7.21465  eV     1   --> A              
     e( 20 - 20) =     -7.06803  eV     1   --> A              
     e( 21 - 21) =     -6.96257  eV     1   --> A              
     e( 22 - 22) =     -6.93942  eV     1   --> A              
     e( 23 - 23) =     -6.93786  eV     1   --> A              
     e( 24 - 24) =     -6.83549  eV     1   --> A              
     e( 25 - 25) =     -6.75259  eV     1   --> A              
     e( 26 - 26) =     -6.53989  eV     1   --> A              
     e( 27 - 27) =     -6.52343  eV     1   --> A              
     e( 28 - 28) =     -6.37055  eV     1   --> A              
     e( 29 - 29) =     -6.10610  eV     1   --> A              
     e( 30 - 30) =     -6.03134  eV     1   --> A              
     e( 31 - 31) =     -5.90763  eV     1   --> A              
     e( 32 - 32) =     -5.83209  eV     1   --> A              
     e( 33 - 33) =     -5.68607  eV     1   --> A              
     e( 34 - 34) =     -5.64684  eV     1   --> A              
     e( 35 - 35) =     -5.60578  eV     1   --> A              
     e( 36 - 36) =     -5.55254  eV     1   --> A              
     e( 37 - 37) =     -5.42871  eV     1   --> A              
     e( 38 - 38) =     -5.42062  eV     1   --> A              
     e( 39 - 39) =     -5.39933  eV     1   --> A              
     e( 40 - 40) =     -5.29647  eV     1   --> A              
     e( 41 - 41) =     -5.27156  eV     1   --> A              
     e( 42 - 42) =     -5.10156  eV     1   --> A              
     e( 43 - 43) =     -4.75555  eV     1   --> A              
     e( 44 - 44) =     -4.74030  eV     1   --> A              
     e( 45 - 45) =     -4.70381  eV     1   --> A              
     e( 46 - 46) =     -4.64016  eV     1   --> A              
     e( 47 - 47) =     -4.44487  eV     1   --> A              
     e( 48 - 48) =     -4.37442  eV     1   --> A              
     e( 49 - 49) =     -4.34011  eV     1   --> A              
     e( 50 - 50) =     -4.33879  eV     1   --> A              
     e( 51 - 51) =     -4.18528  eV     1   --> A              
     e( 52 - 52) =     -3.84511  eV     1   --> A              
     e( 53 - 53) =     -3.79069  eV     1   --> A              
     e( 54 - 54) =     -3.75297  eV     1   --> A              
     e( 55 - 55) =     -3.70864  eV     1   --> A              
     e( 56 - 56) =     -3.50355  eV     1   --> A              
     e( 57 - 57) =     -3.37470  eV     1   --> A              
     e( 58 - 58) =     -3.30531  eV     1   --> A              
     e( 59 - 59) =     -3.16010  eV     1   --> A              
     e( 60 - 60) =     -3.03268  eV     1   --> A              
     e( 61 - 61) =     -2.98856  eV     1   --> A              
     e( 62 - 62) =     -2.94549  eV     1   --> A              
     e( 63 - 63) =     -2.87427  eV     1   --> A              
     e( 64 - 64) =     -2.83685  eV     1   --> A              
     e( 65 - 65) =     -2.76337  eV     1   --> A              
     e( 66 - 66) =     -2.75898  eV     1   --> A              
     e( 67 - 67) =     -2.60948  eV     1   --> A              
     e( 68 - 68) =     -2.60424  eV     1   --> A              
     e( 69 - 69) =     -2.45406  eV     1   --> A              
     e( 70 - 70) =     -2.43474  eV     1   --> A              
     e( 71 - 71) =     -2.42617  eV     1   --> A              
     e( 72 - 72) =     -2.33719  eV     1   --> A              
     e( 73 - 73) =     -2.30261  eV     1   --> A              
     e( 74 - 74) =     -1.88204  eV     1   --> A              
     e( 75 - 75) =     -1.86304  eV     1   --> A              
     e( 76 - 76) =     -1.83776  eV     1   --> A              
     e( 77 - 77) =     -0.90871  eV     1   --> A              
     e( 78 - 78) =     -0.87499  eV     1   --> A              
     e( 79 - 79) =     -0.72924  eV     1   --> A              
     e( 80 - 80) =     -0.49492  eV     1   --> A              
     e( 81 - 81) =     -0.45267  eV     1   --> A              
     e( 82 - 82) =      0.69440  eV     1   --> A              
     e( 83 - 83) =      0.72400  eV     1   --> A              
     e( 84 - 84) =      0.94736  eV     1   --> A              
     e( 85 - 85) =      0.95447  eV     1   --> A              
     e( 86 - 86) =      1.00385  eV     1   --> A              
     e( 87 - 87) =      1.07975  eV     1   --> A              
     e( 88 - 88) =      1.16554  eV     1   --> A              
     e( 89 - 89) =      1.19145  eV     1   --> A              
     e( 90 - 90) =      1.19398  eV     1   --> A              
     e( 91 - 91) =      1.31761  eV     1   --> A              
     e( 92 - 92) =      1.33424  eV     1   --> A              
     e( 93 - 93) =      1.72823  eV     1   --> A              
     e( 94 - 94) =      1.78408  eV     1   --> A              
     e( 95 - 95) =      1.87355  eV     1   --> A              
     e( 96 - 96) =      1.87985  eV     1   --> A              
     e( 97 - 97) =      1.99638  eV     1   --> A              
     e( 98 - 98) =      2.01782  eV     1   --> A              
     e( 99 - 99) =      2.12669  eV     1   --> A              
     e(100 -100) =      2.21553  eV     1   --> A              

 **************************************************************************

 **************************************************************************

                    xk=(   0.12526,  -0.07232,   0.00000  )

     Band symmetry, C_1 (1)     point group:

     e(  1 -  1) =    -15.73676  eV     1   --> A              
     e(  2 -  2) =    -14.72051  eV     1   --> A              
     e(  3 -  3) =    -14.56859  eV     1   --> A              
     e(  4 -  4) =    -14.54574  eV     1   --> A              
     e(  5 -  5) =    -14.43755  eV     1   --> A              
     e(  6 -  6) =    -14.17865  eV     1   --> A              
     e(  7 -  7) =    -14.17184  eV     1   --> A              
     e(  8 -  8) =    -13.96825  eV     1   --> A              
     e(  9 -  9) =    -13.88211  eV     1   --> A              
     e( 10 - 10) =    -13.79812  eV     1   --> A              
     e( 11 - 11) =    -13.72273  eV     1   --> A              
     e( 12 - 12) =    -13.60270  eV     1   --> A              
     e( 13 - 13) =    -13.58782  eV     1   --> A              
     e( 14 - 14) =    -13.32232  eV     1   --> A              
     e( 15 - 15) =    -13.18731  eV     1   --> A              
     e( 16 - 16) =    -13.18295  eV     1   --> A              
     e( 17 - 17) =    -12.77434  eV     1   --> A              
     e( 18 - 18) =    -12.77080  eV     1   --> A              
     e( 19 - 19) =     -7.21362  eV     1   --> A              
     e( 20 - 20) =     -7.08340  eV     1   --> A              
     e( 21 - 21) =     -6.96618  eV     1   --> A              
     e( 22 - 22) =     -6.93339  eV     1   --> A              
     e( 23 - 23) =     -6.93197  eV     1   --> A              
     e( 24 - 24) =     -6.83218  eV     1   --> A              
     e( 25 - 25) =     -6.75326  eV     1   --> A              
     e( 26 - 26) =     -6.54229  eV     1   --> A              
     e( 27 - 27) =     -6.52267  eV     1   --> A              
     e( 28 - 28) =     -6.39057  eV     1   --> A              
     e( 29 - 29) =     -6.12888  eV     1   --> A              
     e( 30 - 30) =     -6.05223  eV     1   --> A              
     e( 31 - 31) =     -5.93091  eV     1   --> A              
     e( 32 - 32) =     -5.84280  eV     1   --> A              
     e( 33 - 33) =     -5.66334  eV     1   --> A              
     e( 34 - 34) =     -5.62857  eV     1   --> A              
     e( 35 - 35) =     -5.58880  eV     1   --> A              
     e( 36 - 36) =     -5.53977  eV     1   --> A              
     e( 37 - 37) =     -5.42732  eV     1   --> A              
     e( 38 - 38) =     -5.39905  eV     1   --> A              
     e( 39 - 39) =     -5.38350  eV     1   --> A              
     e( 40 - 40) =     -5.29213  eV     1   --> A              
     e( 41 - 41) =     -5.25737  eV     1   --> A              
     e( 42 - 42) =     -5.08981  eV     1   --> A              
     e( 43 - 43) =     -4.75207  eV     1   --> A              
     e( 44 - 44) =     -4.73403  eV     1   --> A              
     e( 45 - 45) =     -4.69816  eV     1   --> A              
     e( 46 - 46) =     -4.64702  eV     1   --> A              
     e( 47 - 47) =     -4.45950  eV     1   --> A              
     e( 48 - 48) =     -4.38799  eV     1   --> A              
     e( 49 - 49) =     -4.34877  eV     1   --> A              
     e( 50 - 50) =     -4.34682  eV     1   --> A              
     e( 51 - 51) =     -4.18284  eV     1   --> A              
     e( 52 - 52) =     -3.85489  eV     1   --> A              
     e( 53 - 53) =     -3.78708  eV     1   --> A              
     e( 54 - 54) =     -3.76527  eV     1   --> A              
     e( 55 - 55) =     -3.70364  eV     1   --> A              
     e( 56 - 56) =     -3.50940  eV     1   --> A              
     e( 57 - 57) =     -3.37240  eV     1   --> A              
     e( 58 - 58) =     -3.30998  eV     1   --> A              
     e( 59 - 59) =     -3.15510  eV     1   --> A              
     e( 60 - 60) =     -3.02645  eV     1   --> A              
     e( 61 - 61) =     -2.99133  eV     1   --> A              
     e( 62 - 62) =     -2.94536  eV     1   --> A              
     e( 63 - 63) =     -2.86290  eV     1   --> A              
     e( 64 - 64) =     -2.82602  eV     1   --> A              
     e( 65 - 65) =     -2.77907  eV     1   --> A              
     e( 66 - 66) =     -2.77274  eV     1   --> A              
     e( 67 - 67) =     -2.62391  eV     1   --> A              
     e( 68 - 68) =     -2.60369  eV     1   --> A              
     e( 69 - 69) =     -2.45331  eV     1   --> A              
     e( 70 - 70) =     -2.42253  eV     1   --> A              
     e( 71 - 71) =     -2.41655  eV     1   --> A              
     e( 72 - 72) =     -2.32634  eV     1   --> A              
     e( 73 - 73) =     -2.28402  eV     1   --> A              
     e( 74 - 74) =     -1.88501  eV     1   --> A              
     e( 75 - 75) =     -1.85968  eV     1   --> A              
     e( 76 - 76) =     -1.83320  eV     1   --> A              
     e( 77 - 77) =     -0.92196  eV     1   --> A              
     e( 78 - 78) =     -0.87871  eV     1   --> A              
     e( 79 - 79) =     -0.72286  eV     1   --> A              
     e( 80 - 80) =     -0.50806  eV     1   --> A              
     e( 81 - 81) =     -0.45537  eV     1   --> A              
     e( 82 - 82) =      0.70857  eV     1   --> A              
     e( 83 - 83) =      0.73026  eV     1   --> A              
     e( 84 - 84) =      0.93491  eV     1   --> A              
     e( 85 - 85) =      0.94514  eV     1   --> A              
     e( 86 - 86) =      1.00094  eV     1   --> A              
     e( 87 - 87) =      1.08170  eV     1   --> A              
     e( 88 - 88) =      1.16888  eV     1   --> A              
     e( 89 - 89) =      1.19789  eV     1   --> A              
     e( 90 - 90) =      1.20410  eV     1   --> A              
     e( 91 - 91) =      1.33068  eV     1   --> A              
     e( 92 - 92) =      1.34462  eV     1   --> A              
     e( 93 - 93) =      1.72141  eV     1   --> A              
     e( 94 - 94) =      1.78876  eV     1   --> A              
     e( 95 - 95) =      1.86427  eV     1   --> A              
     e( 96 - 96) =      1.87499  eV     1   --> A              
     e( 97 - 97) =      1.98601  eV     1   --> A              
     e( 98 - 98) =      2.01681  eV     1   --> A              
     e( 99 - 99) =      2.10679  eV     1   --> A              
     e(100 -100) =      2.19912  eV     1   --> A              

 **************************************************************************

 **************************************************************************

                    xk=(   0.13917,  -0.08036,   0.00000  )

     Band symmetry, C_1 (1)     point group:

     e(  1 -  1) =    -15.73105  eV     1   --> A              
     e(  2 -  2) =    -14.74397  eV     1   --> A              
     e(  3 -  3) =    -14.57492  eV     1   --> A              
     e(  4 -  4) =    -14.54238  eV     1   --> A              
     e(  5 -  5) =    -14.43573  eV     1   --> A              
     e(  6 -  6) =    -14.16804  eV     1   --> A              
     e(  7 -  7) =    -14.16211  eV     1   --> A              
     e(  8 -  8) =    -13.98004  eV     1   --> A              
     e(  9 -  9) =    -13.88375  eV     1   --> A              
     e( 10 - 10) =    -13.79346  eV     1   --> A              
     e( 11 - 11) =    -13.71296  eV     1   --> A              
     e( 12 - 12) =    -13.60192  eV     1   --> A              
     e( 13 - 13) =    -13.58497  eV     1   --> A              
     e( 14 - 14) =    -13.31820  eV     1   --> A              
     e( 15 - 15) =    -13.19073  eV     1   --> A              
     e( 16 - 16) =    -13.18530  eV     1   --> A              
     e( 17 - 17) =    -12.77584  eV     1   --> A              
     e( 18 - 18) =    -12.77126  eV     1   --> A              
     e( 19 - 19) =     -7.21369  eV     1   --> A              
     e( 20 - 20) =     -7.09720  eV     1   --> A              
     e( 21 - 21) =     -6.97059  eV     1   --> A              
     e( 22 - 22) =     -6.92711  eV     1   --> A              
     e( 23 - 23) =     -6.92445  eV     1   --> A              
     e( 24 - 24) =     -6.83199  eV     1   --> A              
     e( 25 - 25) =     -6.75151  eV     1   --> A              
     e( 26 - 26) =     -6.54703  eV     1   --> A              
     e( 27 - 27) =     -6.52317  eV     1   --> A              
     e( 28 - 28) =     -6.40837  eV     1   --> A              
     e( 29 - 29) =     -6.15028  eV     1   --> A              
     e( 30 - 30) =     -6.07361  eV     1   --> A              
     e( 31 - 31) =     -5.95366  eV     1   --> A              
     e( 32 - 32) =     -5.85436  eV     1   --> A              
     e( 33 - 33) =     -5.64158  eV     1   --> A              
     e( 34 - 34) =     -5.61138  eV     1   --> A              
     e( 35 - 35) =     -5.57156  eV     1   --> A              
     e( 36 - 36) =     -5.52664  eV     1   --> A              
     e( 37 - 37) =     -5.42556  eV     1   --> A              
     e( 38 - 38) =     -5.38742  eV     1   --> A              
     e( 39 - 39) =     -5.35729  eV     1   --> A              
     e( 40 - 40) =     -5.28786  eV     1   --> A              
     e( 41 - 41) =     -5.24082  eV     1   --> A              
     e( 42 - 42) =     -5.07705  eV     1   --> A              
     e( 43 - 43) =     -4.74789  eV     1   --> A              
     e( 44 - 44) =     -4.72661  eV     1   --> A              
     e( 45 - 45) =     -4.69189  eV     1   --> A              
     e( 46 - 46) =     -4.65371  eV     1   --> A              
     e( 47 - 47) =     -4.47468  eV     1   --> A              
     e( 48 - 48) =     -4.40255  eV     1   --> A              
     e( 49 - 49) =     -4.35856  eV     1   --> A              
     e( 50 - 50) =     -4.35548  eV     1   --> A              
     e( 51 - 51) =     -4.18033  eV     1   --> A              
     e( 52 - 52) =     -3.86584  eV     1   --> A              
     e( 53 - 53) =     -3.78821  eV     1   --> A              
     e( 54 - 54) =     -3.77567  eV     1   --> A              
     e( 55 - 55) =     -3.69797  eV     1   --> A              
     e( 56 - 56) =     -3.51175  eV     1   --> A              
     e( 57 - 57) =     -3.36967  eV     1   --> A              
     e( 58 - 58) =     -3.31632  eV     1   --> A              
     e( 59 - 59) =     -3.14918  eV     1   --> A              
     e( 60 - 60) =     -3.02166  eV     1   --> A              
     e( 61 - 61) =     -3.00893  eV     1   --> A              
     e( 62 - 62) =     -2.93068  eV     1   --> A              
     e( 63 - 63) =     -2.85120  eV     1   --> A              
     e( 64 - 64) =     -2.82195  eV     1   --> A              
     e( 65 - 65) =     -2.79315  eV     1   --> A              
     e( 66 - 66) =     -2.78045  eV     1   --> A              
     e( 67 - 67) =     -2.63936  eV     1   --> A              
     e( 68 - 68) =     -2.60412  eV     1   --> A              
     e( 69 - 69) =     -2.45489  eV     1   --> A              
     e( 70 - 70) =     -2.40927  eV     1   --> A              
     e( 71 - 71) =     -2.40304  eV     1   --> A              
     e( 72 - 72) =     -2.31524  eV     1   --> A              
     e( 73 - 73) =     -2.26550  eV     1   --> A              
     e( 74 - 74) =     -1.88851  eV     1   --> A              
     e( 75 - 75) =     -1.85565  eV     1   --> A              
     e( 76 - 76) =     -1.82854  eV     1   --> A              
     e( 77 - 77) =     -0.93656  eV     1   --> A              
     e( 78 - 78) =     -0.88245  eV     1   --> A              
     e( 79 - 79) =     -0.71624  eV     1   --> A              
     e( 80 - 80) =     -0.52216  eV     1   --> A              
     e( 81 - 81) =     -0.45807  eV     1   --> A              
     e( 82 - 82) =      0.72348  eV     1   --> A              
     e( 83 - 83) =      0.73680  eV     1   --> A              
     e( 84 - 84) =      0.92294  eV     1   --> A              
     e( 85 - 85) =      0.93613  eV     1   --> A              
     e( 86 - 86) =      0.99838  eV     1   --> A              
     e( 87 - 87) =      1.08402  eV     1   --> A              
     e( 88 - 88) =      1.17228  eV     1   --> A              
     e( 89 - 89) =      1.20297  eV     1   --> A              
     e( 90 - 90) =      1.21560  eV     1   --> A              
     e( 91 - 91) =      1.34516  eV     1   --> A              
     e( 92 - 92) =      1.35503  eV     1   --> A              
     e( 93 - 93) =      1.71388  eV     1   --> A              
     e( 94 - 94) =      1.79172  eV     1   --> A              
     e( 95 - 95) =      1.85463  eV     1   --> A              
     e( 96 - 96) =      1.86977  eV     1   --> A              
     e( 97 - 97) =      1.97446  eV     1   --> A              
     e( 98 - 98) =      2.01690  eV     1   --> A              
     e( 99 - 99) =      2.08712  eV     1   --> A              
     e(100 -100) =      2.18151  eV     1   --> A              

 **************************************************************************

 **************************************************************************

                    xk=(   0.15309,  -0.08839,   0.00000  )

     Band symmetry, C_1 (1)     point group:

     e(  1 -  1) =    -15.72475  eV     1   --> A              
     e(  2 -  2) =    -14.76768  eV     1   --> A              
     e(  3 -  3) =    -14.58145  eV     1   --> A              
     e(  4 -  4) =    -14.53867  eV     1   --> A              
     e(  5 -  5) =    -14.43529  eV     1   --> A              
     e(  6 -  6) =    -14.15657  eV     1   --> A              
     e(  7 -  7) =    -14.15193  eV     1   --> A              
     e(  8 -  8) =    -13.99183  eV     1   --> A              
     e(  9 -  9) =    -13.88547  eV     1   --> A              
     e( 10 - 10) =    -13.78957  eV     1   --> A              
     e( 11 - 11) =    -13.70280  eV     1   --> A              
     e( 12 - 12) =    -13.60066  eV     1   --> A              
     e( 13 - 13) =    -13.58193  eV     1   --> A              
     e( 14 - 14) =    -13.31400  eV     1   --> A              
     e( 15 - 15) =    -13.19445  eV     1   --> A              
     e( 16 - 16) =    -13.18779  eV     1   --> A              
     e( 17 - 17) =    -12.77749  eV     1   --> A              
     e( 18 - 18) =    -12.77172  eV     1   --> A              
     e( 19 - 19) =     -7.21559  eV     1   --> A              
     e( 20 - 20) =     -7.10865  eV     1   --> A              
     e( 21 - 21) =     -6.97547  eV     1   --> A              
     e( 22 - 22) =     -6.92000  eV     1   --> A              
     e( 23 - 23) =     -6.91625  eV     1   --> A              
     e( 24 - 24) =     -6.83437  eV     1   --> A              
     e( 25 - 25) =     -6.74775  eV     1   --> A              
     e( 26 - 26) =     -6.55489  eV     1   --> A              
     e( 27 - 27) =     -6.52512  eV     1   --> A              
     e( 28 - 28) =     -6.42297  eV     1   --> A              
     e( 29 - 29) =     -6.17013  eV     1   --> A              
     e( 30 - 30) =     -6.09531  eV     1   --> A              
     e( 31 - 31) =     -5.97584  eV     1   --> A              
     e( 32 - 32) =     -5.86658  eV     1   --> A              
     e( 33 - 33) =     -5.62113  eV     1   --> A              
     e( 34 - 34) =     -5.59549  eV     1   --> A              
     e( 35 - 35) =     -5.55420  eV     1   --> A              
     e( 36 - 36) =     -5.51323  eV     1   --> A              
     e( 37 - 37) =     -5.42330  eV     1   --> A              
     e( 38 - 38) =     -5.37740  eV     1   --> A              
     e( 39 - 39) =     -5.32922  eV     1   --> A              
     e( 40 - 40) =     -5.28371  eV     1   --> A              
     e( 41 - 41) =     -5.22198  eV     1   --> A              
     e( 42 - 42) =     -5.06364  eV     1   --> A              
     e( 43 - 43) =     -4.74329  eV     1   --> A              
     e( 44 - 44) =     -4.71787  eV     1   --> A              
     e( 45 - 45) =     -4.68556  eV     1   --> A              
     e( 46 - 46) =     -4.65903  eV     1   --> A              
     e( 47 - 47) =     -4.49020  eV     1   --> A              
     e( 48 - 48) =     -4.41793  eV     1   --> A              
     e( 49 - 49) =     -4.36928  eV     1   --> A              
     e( 50 - 50) =     -4.36469  eV     1   --> A              
     e( 51 - 51) =     -4.17788  eV     1   --> A              
     e( 52 - 52) =     -3.87791  eV     1   --> A              
     e( 53 - 53) =     -3.80401  eV     1   --> A              
     e( 54 - 54) =     -3.77396  eV     1   --> A              
     e( 55 - 55) =     -3.69167  eV     1   --> A              
     e( 56 - 56) =     -3.51094  eV     1   --> A              
     e( 57 - 57) =     -3.36651  eV     1   --> A              
     e( 58 - 58) =     -3.32377  eV     1   --> A              
     e( 59 - 59) =     -3.14297  eV     1   --> A              
     e( 60 - 60) =     -3.03061  eV     1   --> A              
     e( 61 - 61) =     -3.01842  eV     1   --> A              
     e( 62 - 62) =     -2.91204  eV     1   --> A              
     e( 63 - 63) =     -2.84437  eV     1   --> A              
     e( 64 - 64) =     -2.83088  eV     1   --> A              
     e( 65 - 65) =     -2.80043  eV     1   --> A              
     e( 66 - 66) =     -2.77606  eV     1   --> A              
     e( 67 - 67) =     -2.65592  eV     1   --> A              
[...]
     e(  3 -  3) =    -14.55968  eV     1   --> A              
     e(  4 -  4) =    -14.53633  eV     1   --> A              
     e(  5 -  5) =    -14.50001  eV     1   --> A              
     e(  6 -  6) =    -14.21918  eV     1   --> A              
     e(  7 -  7) =    -14.21796  eV     1   --> A              
     e(  8 -  8) =    -13.88958  eV     1   --> A              
     e(  9 -  9) =    -13.87388  eV     1   --> A              
     e( 10 - 10) =    -13.84943  eV     1   --> A              
     e( 11 - 11) =    -13.76901  eV     1   --> A              
     e( 12 - 12) =    -13.60127  eV     1   --> A              
     e( 13 - 13) =    -13.59999  eV     1   --> A              
     e( 14 - 14) =    -13.34270  eV     1   --> A              
     e( 15 - 15) =    -13.17344  eV     1   --> A              
     e( 16 - 16) =    -13.17206  eV     1   --> A              
     e( 17 - 17) =    -12.76947  eV     1   --> A              
     e( 18 - 18) =    -12.76702  eV     1   --> A              
     e( 19 - 19) =     -7.22384  eV     1   --> A              
     e( 20 - 20) =     -6.96884  eV     1   --> A              
     e( 21 - 21) =     -6.96605  eV     1   --> A              
     e( 22 - 22) =     -6.96204  eV     1   --> A              
     e( 23 - 23) =     -6.93707  eV     1   --> A              
     e( 24 - 24) =     -6.90156  eV     1   --> A              
     e( 25 - 25) =     -6.72699  eV     1   --> A              
     e( 26 - 26) =     -6.54170  eV     1   --> A              
     e( 27 - 27) =     -6.53989  eV     1   --> A              
     e( 28 - 28) =     -6.25917  eV     1   --> A              
     e( 29 - 29) =     -5.95686  eV     1   --> A              
     e( 30 - 30) =     -5.92573  eV     1   --> A              
     e( 31 - 31) =     -5.83014  eV     1   --> A              
     e( 32 - 32) =     -5.82625  eV     1   --> A              
     e( 33 - 33) =     -5.75321  eV     1   --> A              
     e( 34 - 34) =     -5.73210  eV     1   --> A              
     e( 35 - 35) =     -5.68217  eV     1   --> A              
     e( 36 - 36) =     -5.61171  eV     1   --> A              
     e( 37 - 37) =     -5.59056  eV     1   --> A              
     e( 38 - 38) =     -5.43185  eV     1   --> A              
     e( 39 - 39) =     -5.43006  eV     1   --> A              
     e( 40 - 40) =     -5.31777  eV     1   --> A              
     e( 41 - 41) =     -5.31472  eV     1   --> A              
     e( 42 - 42) =     -5.14228  eV     1   --> A              
     e( 43 - 43) =     -4.76261  eV     1   --> A              
     e( 44 - 44) =     -4.76021  eV     1   --> A              
     e( 45 - 45) =     -4.72465  eV     1   --> A              
     e( 46 - 46) =     -4.61143  eV     1   --> A              
     e( 47 - 47) =     -4.37889  eV     1   --> A              
     e( 48 - 48) =     -4.32209  eV     1   --> A              
     e( 49 - 49) =     -4.31822  eV     1   --> A              
     e( 50 - 50) =     -4.30742  eV     1   --> A              
     e( 51 - 51) =     -4.19307  eV     1   --> A              
     e( 52 - 52) =     -3.81166  eV     1   --> A              
     e( 53 - 53) =     -3.80781  eV     1   --> A              
     e( 54 - 54) =     -3.72700  eV     1   --> A              
     e( 55 - 55) =     -3.72477  eV     1   --> A              
     e( 56 - 56) =     -3.41134  eV     1   --> A              
     e( 57 - 57) =     -3.38070  eV     1   --> A              
     e( 58 - 58) =     -3.33925  eV     1   --> A              
     e( 59 - 59) =     -3.15462  eV     1   --> A              
     e( 60 - 60) =     -3.07515  eV     1   --> A              
     e( 61 - 61) =     -3.07029  eV     1   --> A              
     e( 62 - 62) =     -2.90788  eV     1   --> A              
     e( 63 - 63) =     -2.90510  eV     1   --> A              
     e( 64 - 64) =     -2.84708  eV     1   --> A              
     e( 65 - 65) =     -2.69189  eV     1   --> A              
     e( 66 - 66) =     -2.68940  eV     1   --> A              
     e( 67 - 67) =     -2.61250  eV     1   --> A              
     e( 68 - 68) =     -2.53523  eV     1   --> A              
     e( 69 - 69) =     -2.51614  eV     1   --> A              
     e( 70 - 70) =     -2.48615  eV     1   --> A              
     e( 71 - 71) =     -2.41113  eV     1   --> A              
     e( 72 - 72) =     -2.39928  eV     1   --> A              
     e( 73 - 73) =     -2.38341  eV     1   --> A              
     e( 74 - 74) =     -1.88416  eV     1   --> A              
     e( 75 - 75) =     -1.86112  eV     1   --> A              
     e( 76 - 76) =     -1.85803  eV     1   --> A              
     e( 77 - 77) =     -0.86001  eV     1   --> A              
     e( 78 - 78) =     -0.85792  eV     1   --> A              
     e( 79 - 79) =     -0.75688  eV     1   --> A              
     e( 80 - 80) =     -0.44369  eV     1   --> A              
     e( 81 - 81) =     -0.44099  eV     1   --> A              
     e( 82 - 82) =      0.63788  eV     1   --> A              
     e( 83 - 83) =      0.69889  eV     1   --> A              
     e( 84 - 84) =      1.00436  eV     1   --> A              
     e( 85 - 85) =      1.01601  eV     1   --> A              
     e( 86 - 86) =      1.01923  eV     1   --> A              
     e( 87 - 87) =      1.08552  eV     1   --> A              
     e( 88 - 88) =      1.12156  eV     1   --> A              
     e( 89 - 89) =      1.13050  eV     1   --> A              
     e( 90 - 90) =      1.18207  eV     1   --> A              
     e( 91 - 91) =      1.27778  eV     1   --> A              
     e( 92 - 92) =      1.28184  eV     1   --> A              
     e( 93 - 93) =      1.75356  eV     1   --> A              
     e( 94 - 94) =      1.75920  eV     1   --> A              
     e( 95 - 95) =      1.89844  eV     1   --> A              
     e( 96 - 96) =      1.89975  eV     1   --> A              
     e( 97 - 97) =      2.03447  eV     1   --> A              
     e( 98 - 98) =      2.03564  eV     1   --> A              
     e( 99 - 99) =      2.23562  eV     1   --> A              
     e(100 -100) =      2.27698  eV     1   --> A              

 **************************************************************************

 **************************************************************************

                    xk=(   0.00795,  -0.01378,   0.00000  )

     Band symmetry, C_1 (1)     point group:

     e(  1 -  1) =    -15.76098  eV     1   --> A              
     e(  2 -  2) =    -14.56022  eV     1   --> A              
     e(  3 -  3) =    -14.54986  eV     1   --> A              
     e(  4 -  4) =    -14.53484  eV     1   --> A              
     e(  5 -  5) =    -14.51509  eV     1   --> A              
     e(  6 -  6) =    -14.22047  eV     1   --> A              
     e(  7 -  7) =    -14.22005  eV     1   --> A              
     e(  8 -  8) =    -13.87997  eV     1   --> A              
     e(  9 -  9) =    -13.87352  eV     1   --> A              
     e( 10 - 10) =    -13.85805  eV     1   --> A              
     e( 11 - 11) =    -13.77101  eV     1   --> A              
     e( 12 - 12) =    -13.60113  eV     1   --> A              
     e( 13 - 13) =    -13.60042  eV     1   --> A              
     e( 14 - 14) =    -13.34361  eV     1   --> A              
     e( 15 - 15) =    -13.17289  eV     1   --> A              
     e( 16 - 16) =    -13.17162  eV     1   --> A              
     e( 17 - 17) =    -12.76927  eV     1   --> A              
     e( 18 - 18) =    -12.76687  eV     1   --> A              
     e( 19 - 19) =     -7.22444  eV     1   --> A              
     e( 20 - 20) =     -6.96787  eV     1   --> A              
     e( 21 - 21) =     -6.96667  eV     1   --> A              
     e( 22 - 22) =     -6.94824  eV     1   --> A              
     e( 23 - 23) =     -6.93621  eV     1   --> A              
     e( 24 - 24) =     -6.91633  eV     1   --> A              
     e( 25 - 25) =     -6.72470  eV     1   --> A              
     e( 26 - 26) =     -6.54258  eV     1   --> A              
     e( 27 - 27) =     -6.54101  eV     1   --> A              
     e( 28 - 28) =     -6.25127  eV     1   --> A              
     e( 29 - 29) =     -5.93848  eV     1   --> A              
     e( 30 - 30) =     -5.91540  eV     1   --> A              
     e( 31 - 31) =     -5.84113  eV     1   --> A              
     e( 32 - 32) =     -5.83872  eV     1   --> A              
     e( 33 - 33) =     -5.73968  eV     1   --> A              
     e( 34 - 34) =     -5.73374  eV     1   --> A              
     e( 35 - 35) =     -5.68416  eV     1   --> A              
     e( 36 - 36) =     -5.61616  eV     1   --> A              
     e( 37 - 37) =     -5.60993  eV     1   --> A              
     e( 38 - 38) =     -5.43246  eV     1   --> A              
     e( 39 - 39) =     -5.43095  eV     1   --> A              
     e( 40 - 40) =     -5.31903  eV     1   --> A              
     e( 41 - 41) =     -5.31658  eV     1   --> A              
     e( 42 - 42) =     -5.14413  eV     1   --> A              
     e( 43 - 43) =     -4.76302  eV     1   --> A              
     e( 44 - 44) =     -4.76069  eV     1   --> A              
     e( 45 - 45) =     -4.72581  eV     1   --> A              
     e( 46 - 46) =     -4.60987  eV     1   --> A              
     e( 47 - 47) =     -4.37450  eV     1   --> A              
     e( 48 - 48) =     -4.31958  eV     1   --> A              
     e( 49 - 49) =     -4.31814  eV     1   --> A              
     e( 50 - 50) =     -4.30560  eV     1   --> A              
     e( 51 - 51) =     -4.19324  eV     1   --> A              
     e( 52 - 52) =     -3.81062  eV     1   --> A              
     e( 53 - 53) =     -3.80832  eV     1   --> A              
     e( 54 - 54) =     -3.72701  eV     1   --> A              
     e( 55 - 55) =     -3.72513  eV     1   --> A              
     e( 56 - 56) =     -3.39336  eV     1   --> A              
     e( 57 - 57) =     -3.38089  eV     1   --> A              
     e( 58 - 58) =     -3.35380  eV     1   --> A              
     e( 59 - 59) =     -3.15142  eV     1   --> A              
     e( 60 - 60) =     -3.07836  eV     1   --> A              
     e( 61 - 61) =     -3.07682  eV     1   --> A              
     e( 62 - 62) =     -2.90922  eV     1   --> A              
     e( 63 - 63) =     -2.90812  eV     1   --> A              
     e( 64 - 64) =     -2.84136  eV     1   --> A              
     e( 65 - 65) =     -2.68766  eV     1   --> A              
     e( 66 - 66) =     -2.68518  eV     1   --> A              
     e( 67 - 67) =     -2.61329  eV     1   --> A              
     e( 68 - 68) =     -2.52674  eV     1   --> A              
     e( 69 - 69) =     -2.52075  eV     1   --> A              
     e( 70 - 70) =     -2.49154  eV     1   --> A              
     e( 71 - 71) =     -2.41059  eV     1   --> A              
     e( 72 - 72) =     -2.40679  eV     1   --> A              
     e( 73 - 73) =     -2.38536  eV     1   --> A              
     e( 74 - 74) =     -1.88486  eV     1   --> A              
     e( 75 - 75) =     -1.86064  eV     1   --> A              
     e( 76 - 76) =     -1.85894  eV     1   --> A              
     e( 77 - 77) =     -0.85798  eV     1   --> A              
     e( 78 - 78) =     -0.85639  eV     1   --> A              
     e( 79 - 79) =     -0.75852  eV     1   --> A              
     e( 80 - 80) =     -0.44100  eV     1   --> A              
     e( 81 - 81) =     -0.44030  eV     1   --> A              
     e( 82 - 82) =      0.63485  eV     1   --> A              
     e( 83 - 83) =      0.69755  eV     1   --> A              
     e( 84 - 84) =      1.00781  eV     1   --> A              
     e( 85 - 85) =      1.02006  eV     1   --> A              
     e( 86 - 86) =      1.02178  eV     1   --> A              
     e( 87 - 87) =      1.09154  eV     1   --> A              
     e( 88 - 88) =      1.11642  eV     1   --> A              
     e( 89 - 89) =      1.12013  eV     1   --> A              
     e( 90 - 90) =      1.18348  eV     1   --> A              
     e( 91 - 91) =      1.27585  eV     1   --> A              
     e( 92 - 92) =      1.27852  eV     1   --> A              
     e( 93 - 93) =      1.75428  eV     1   --> A              
     e( 94 - 94) =      1.75833  eV     1   --> A              
     e( 95 - 95) =      1.89941  eV     1   --> A              
     e( 96 - 96) =      1.90055  eV     1   --> A              
     e( 97 - 97) =      2.03648  eV     1   --> A              
     e( 98 - 98) =      2.03723  eV     1   --> A              
     e( 99 - 99) =      2.24903  eV     1   --> A              
     e(100 -100) =      2.28002  eV     1   --> A              

 **************************************************************************

 **************************************************************************

                    xk=(   0.00000,   0.00000,   0.00000  )

     Band symmetry, C_1 (1)     point group:

     e(  1 -  1) =    -15.76128  eV     1   --> A              
     e(  2 -  2) =    -14.56040  eV     1   --> A              
     e(  3 -  3) =    -14.53555  eV     1   --> A              
     e(  4 -  4) =    -14.53391  eV     1   --> A              
     e(  5 -  5) =    -14.52874  eV     1   --> A              
     e(  6 -  6) =    -14.22101  eV     1   --> A              
     e(  7 -  7) =    -14.22065  eV     1   --> A              
     e(  8 -  8) =    -13.87427  eV     1   --> A              
     e(  9 -  9) =    -13.87299  eV     1   --> A              
     e( 10 - 10) =    -13.86383  eV     1   --> A              
     e( 11 - 11) =    -13.77169  eV     1   --> A              
     e( 12 - 12) =    -13.60113  eV     1   --> A              
     e( 13 - 13) =    -13.60051  eV     1   --> A              
     e( 14 - 14) =    -13.34392  eV     1   --> A              
     e( 15 - 15) =    -13.17270  eV     1   --> A              
     e( 16 - 16) =    -13.17147  eV     1   --> A              
     e( 17 - 17) =    -12.76921  eV     1   --> A              
     e( 18 - 18) =    -12.76682  eV     1   --> A              
     e( 19 - 19) =     -7.22464  eV     1   --> A              
     e( 20 - 20) =     -6.96813  eV     1   --> A              
     e( 21 - 21) =     -6.96696  eV     1   --> A              
     e( 22 - 22) =     -6.93605  eV     1   --> A              
     e( 23 - 23) =     -6.93512  eV     1   --> A              
     e( 24 - 24) =     -6.92900  eV     1   --> A              
     e( 25 - 25) =     -6.72391  eV     1   --> A              
     e( 26 - 26) =     -6.54298  eV     1   --> A              
     e( 27 - 27) =     -6.54132  eV     1   --> A              
     e( 28 - 28) =     -6.24855  eV     1   --> A              
     e( 29 - 29) =     -5.93078  eV     1   --> A              
     e( 30 - 30) =     -5.91126  eV     1   --> A              
     e( 31 - 31) =     -5.84626  eV     1   --> A              
     e( 32 - 32) =     -5.84409  eV     1   --> A              
     e( 33 - 33) =     -5.73442  eV     1   --> A              
     e( 34 - 34) =     -5.73400  eV     1   --> A              
     e( 35 - 35) =     -5.68397  eV     1   --> A              
     e( 36 - 36) =     -5.61804  eV     1   --> A              
     e( 37 - 37) =     -5.61757  eV     1   --> A              
     e( 38 - 38) =     -5.43277  eV     1   --> A              
     e( 39 - 39) =     -5.43114  eV     1   --> A              
     e( 40 - 40) =     -5.31946  eV     1   --> A              
     e( 41 - 41) =     -5.31719  eV     1   --> A              
     e( 42 - 42) =     -5.14474  eV     1   --> A              
     e( 43 - 43) =     -4.76319  eV     1   --> A              
     e( 44 - 44) =     -4.76081  eV     1   --> A              
     e( 45 - 45) =     -4.72621  eV     1   --> A              
     e( 46 - 46) =     -4.60934  eV     1   --> A              
     e( 47 - 47) =     -4.37297  eV     1   --> A              
     e( 48 - 48) =     -4.31891  eV     1   --> A              
     e( 49 - 49) =     -4.31802  eV     1   --> A              
     e( 50 - 50) =     -4.30497  eV     1   --> A              
     e( 51 - 51) =     -4.19328  eV     1   --> A              
     e( 52 - 52) =     -3.81045  eV     1   --> A              
     e( 53 - 53) =     -3.80832  eV     1   --> A              
     e( 54 - 54) =     -3.72706  eV     1   --> A              
     e( 55 - 55) =     -3.72522  eV     1   --> A              
     e( 56 - 56) =     -3.38180  eV     1   --> A              
     e( 57 - 57) =     -3.38090  eV     1   --> A              
     e( 58 - 58) =     -3.36425  eV     1   --> A              
     e( 59 - 59) =     -3.15018  eV     1   --> A              
     e( 60 - 60) =     -3.07949  eV     1   --> A              
     e( 61 - 61) =     -3.07909  eV     1   --> A              
     e( 62 - 62) =     -2.90991  eV     1   --> A              
     e( 63 - 63) =     -2.90892  eV     1   --> A              
     e( 64 - 64) =     -2.83938  eV     1   --> A              
     e( 65 - 65) =     -2.68623  eV     1   --> A              
     e( 66 - 66) =     -2.68374  eV     1   --> A              
     e( 67 - 67) =     -2.61358  eV     1   --> A              
     e( 68 - 68) =     -2.52318  eV     1   --> A              
     e( 69 - 69) =     -2.52224  eV     1   --> A              
     e( 70 - 70) =     -2.49401  eV     1   --> A              
     e( 71 - 71) =     -2.41083  eV     1   --> A              
     e( 72 - 72) =     -2.40914  eV     1   --> A              
     e( 73 - 73) =     -2.38591  eV     1   --> A              
     e( 74 - 74) =     -1.88510  eV     1   --> A              
     e( 75 - 75) =     -1.86061  eV     1   --> A              
     e( 76 - 76) =     -1.85912  eV     1   --> A              
     e( 77 - 77) =     -0.85740  eV     1   --> A              
     e( 78 - 78) =     -0.85578  eV     1   --> A              
     e( 79 - 79) =     -0.75908  eV     1   --> A              
     e( 80 - 80) =     -0.44020  eV     1   --> A              
     e( 81 - 81) =     -0.43997  eV     1   --> A              
     e( 82 - 82) =      0.63383  eV     1   --> A              
     e( 83 - 83) =      0.69710  eV     1   --> A              
     e( 84 - 84) =      1.00892  eV     1   --> A              
     e( 85 - 85) =      1.02126  eV     1   --> A              
     e( 86 - 86) =      1.02294  eV     1   --> A              
     e( 87 - 87) =      1.09554  eV     1   --> A              
     e( 88 - 88) =      1.11311  eV     1   --> A              
     e( 89 - 89) =      1.11614  eV     1   --> A              
     e( 90 - 90) =      1.18401  eV     1   --> A              
     e( 91 - 91) =      1.27503  eV     1   --> A              
     e( 92 - 92) =      1.27754  eV     1   --> A              
     e( 93 - 93) =      1.75439  eV     1   --> A              
     e( 94 - 94) =      1.75817  eV     1   --> A              
     e( 95 - 95) =      1.89971  eV     1   --> A              
     e( 96 - 96) =      1.90083  eV     1   --> A              
     e( 97 - 97) =      2.03715  eV     1   --> A              
     e( 98 - 98) =      2.03778  eV     1   --> A              
     e( 99 - 99) =      2.25596  eV     1   --> A              
     e(100 -100) =      2.28079  eV     1   --> A              

 **************************************************************************

     BANDS        :  12m29.30s CPU  14m43.09s WALL


   This run was terminated on:  23:57: 1   3Jun2022            

=------------------------------------------------------------------------------=
   JOB DONE.
=------------------------------------------------------------------------------=
