
     Program PWSCF v.6.5Max starts on 27May2022 at 20:33:13 

     This program is part of the open-source Quantum ESPRESSO suite
     for quantum simulation of materials; please cite
         "P. Giannozzi et al., J. Phys.:Condens. Matter 21 395502 (2009);
         "P. Giannozzi et al., J. Phys.:Condens. Matter 29 465901 (2017);
          URL http://www.quantum-espresso.org", 
     in publications or presentations arising from this work. More details at
     http://www.quantum-espresso.org/quote

     Parallel version (MPI), running on    16 processors

     MPI processes distributed on     1 nodes
     R & G space division:  proc/nbgrp/npool/nimage =      16
     Waiting for input...
     Reading input from standard input
Warning: card &IONS ignored
Warning: card  / ignored
Warning: card &CELL ignored
Warning: card CELL_DYNAMICS='BFGS' ignored
Warning: card CELL_FACTOR=2.5 ignored
Warning: card CELL_DOFREE='2DXY' ignored
Warning: card / ignored

     Current dimensions of program PWSCF are:
     Max number of different atomic species (ntypx) = 10
     Max number of k-points (npk) =  40000
     Max angular momentum in pseudopotentials (lmaxx) =  3
               file Mo.pw-mt_fhi.UPF: wavefunction(s)  4f renormalized
               file S.pw-mt_fhi.UPF: wavefunction(s)  4f renormalized

     -------------------------------------------------
     Parameters for Dispersion (Grimme-D2) Correction:
     -------------------------------------------------
       atom      VdW radius       C_6     

        Mo         3.097        855.833
        S          3.180        193.230

     Subspace diagonalization in iterative solution of the eigenvalue problem:
     a serial algorithm will be used

     Message from routine setup:
     no reason to have ecutrho>4*ecutwfc

     Parallelization info
     --------------------
     sticks:   dense  smooth     PW     G-vecs:    dense   smooth      PW
     Min         795     318     87               141338    35744    5121
     Max         797     319     88               141341    35751    5128
     Sum       12727    5089   1393              2261433   571933   81977



     bravais-lattice index     =            0
     lattice parameter (alat)  =      17.5735  a.u.
     unit-cell volume          =    9111.0240 (a.u.)^3
     number of atoms/cell      =           26
     number of atomic types    =            2
     number of electrons       =       156.00
     number of Kohn-Sham states=          100
     kinetic-energy cutoff     =      60.0000  Ry
     charge density cutoff     =     600.0000  Ry
     convergence threshold     =      1.0E-04
     mixing beta               =       0.3000
     number of iterations used =            8  plain     mixing
     Exchange-correlation= SLA-PW
                           (   1   4   0   0   0   0   0)

     celldm(1)=  17.573519  celldm(2)=   0.000000  celldm(3)=   0.000000
     celldm(4)=   0.000000  celldm(5)=   0.000000  celldm(6)=   0.000000

     crystal axes: (cart. coord. in units of alat)
               a(1) = (   0.997901  -0.000076   0.000000 )  
               a(2) = (  -0.499016   0.864143   0.000000 )  
               a(3) = (   0.000000   0.000000   1.946870 )  

     reciprocal axes: (cart. coord. in units 2 pi/alat)
               b(1) = (  1.002148  0.578710 -0.000000 )  
               b(2) = (  0.000088  1.157267 -0.000000 )  
               b(3) = ( -0.000000 -0.000000  0.513645 )  


     PseudoPot. # 1 for Mo read from file:
     ./Mo.pw-mt_fhi.UPF
     MD5 check sum: 39557091c5c29ab518dcc42d2770f0a9
     Pseudo is Norm-conserving, Zval =  6.0
     Generated using FHI98PP, converted with fhi2upf.x v.5.0.1
     Using radial grid of  541 points,  3 beta functions with: 
                l(1) =   0
                l(2) =   2
                l(3) =   3

     PseudoPot. # 2 for S  read from file:
     ./S.pw-mt_fhi.UPF
     MD5 check sum: 498597b413bac406373b42162ed9f1a5
     Pseudo is Norm-conserving, Zval =  6.0
     Generated using FHI98PP, converted with fhi2upf.x v.5.0.1
     Using radial grid of  501 points,  3 beta functions with: 
                l(1) =   0
                l(2) =   1
                l(3) =   3

     atomic species   valence    mass     pseudopotential
        Mo             6.00    95.95000     Mo( 1.00)
        S              6.00    32.06500     S ( 1.00)

     No symmetry found



   Cartesian axes

     site n.     atom                  positions (alat units)
         1           Mo  tau(   1) = (   0.1690316   0.0956945   1.2044210  )
         2           S   tau(   2) = (   0.0004165   0.1937362   1.3658801  )
         3           S   tau(   3) = (   0.0025124   0.1902760   1.0342524  )
         4           Mo  tau(   4) = (   0.0017081   0.3852503   1.1957635  )
         5           S   tau(   5) = (  -0.1619619   0.4796776   1.3657781  )
         6           S   tau(   6) = (  -0.1709244   0.4796409   1.0342775  )
         7           Mo  tau(   7) = (  -0.1664310   0.6711912   1.1999992  )
         8           S   tau(   8) = (  -0.3346269   0.7629910   1.3656937  )
         9           S   tau(   9) = (  -0.3300162   0.7709456   1.0342863  )
        10           Mo  tau(  10) = (   0.4961693   0.0956403   1.1956339  )
        11           S   tau(  11) = (   0.3279846   0.1917834   1.3643265  )
        12           S   tau(  12) = (   0.3371729   0.1921740   1.0360409  )
        13           S   tau(  13) = (   0.1690522   0.4828090   1.3642049  )
        14           S   tau(  14) = (   0.1644521   0.4748287   1.0357841  )
        15           Mo  tau(  15) = (   0.1652549   0.6685189   1.2042180  )
        16           S   tau(  16) = (  -0.0027906   0.7708785   1.3656992  )
        17           S   tau(  17) = (   0.0016511   0.7630550   1.0342185  )
        18           Mo  tau(  18) = (   0.8315306   0.0950180   1.1999887  )
        19           S   tau(  19) = (   0.6626515   0.1901398   1.3658037  )
        20           S   tau(  20) = (   0.6647289   0.1937136   1.0341563  )
        21           Mo  tau(  21) = (   0.6633447   0.3851424   1.2043119  )
        22           S   tau(  22) = (   0.5001875   0.4745429   1.3638712  )
        23           S   tau(  23) = (   0.4960824   0.4827703   1.0355701  )
        24           Mo  tau(  24) = (   0.4997247   0.6684173   1.1955655  )
        25           S   tau(  25) = (   0.3345334   0.7653183   1.3657201  )
        26           S   tau(  26) = (   0.3304841   0.7654013   1.0341045  )

     number of k points=    52
                       cart. coord. in units 2pi/alat
        k(    1) = (   0.0000000   0.0000000   0.0000000), wk =   0.0200000
        k(    2) = (   0.0000088   0.1157267   0.0000000), wk =   0.0400000
        k(    3) = (   0.0000177   0.2314533   0.0000000), wk =   0.0400000
        k(    4) = (   0.0000265   0.3471800   0.0000000), wk =   0.0400000
        k(    5) = (   0.0000354   0.4629066   0.0000000), wk =   0.0400000
        k(    6) = (  -0.0000442  -0.5786333   0.0000000), wk =   0.0200000
        k(    7) = (   0.1002148   0.0578710   0.0000000), wk =   0.0400000
        k(    8) = (   0.1002236   0.1735976   0.0000000), wk =   0.0400000
        k(    9) = (   0.1002325   0.2893243   0.0000000), wk =   0.0400000
        k(   10) = (   0.1002413   0.4050510   0.0000000), wk =   0.0400000
        k(   11) = (   0.1002501   0.5207776   0.0000000), wk =   0.0400000
        k(   12) = (   0.1001706  -0.5207623   0.0000000), wk =   0.0400000
        k(   13) = (   0.1001794  -0.4050357   0.0000000), wk =   0.0400000
        k(   14) = (   0.1001882  -0.2893090   0.0000000), wk =   0.0400000
        k(   15) = (   0.1001971  -0.1735823   0.0000000), wk =   0.0400000
        k(   16) = (   0.1002059  -0.0578557   0.0000000), wk =   0.0400000
        k(   17) = (   0.2004295   0.1157420   0.0000000), wk =   0.0400000
        k(   18) = (   0.2004384   0.2314686   0.0000000), wk =   0.0400000
        k(   19) = (   0.2004472   0.3471953   0.0000000), wk =   0.0400000
        k(   20) = (   0.2004561   0.4629220   0.0000000), wk =   0.0400000
        k(   21) = (   0.2004649   0.5786486   0.0000000), wk =   0.0400000
        k(   22) = (   0.2003853  -0.4628913   0.0000000), wk =   0.0400000
        k(   23) = (   0.2003942  -0.3471647   0.0000000), wk =   0.0400000
        k(   24) = (   0.2004030  -0.2314380   0.0000000), wk =   0.0400000
        k(   25) = (   0.2004119  -0.1157113   0.0000000), wk =   0.0400000
        k(   26) = (   0.2004207   0.0000153   0.0000000), wk =   0.0400000
        k(   27) = (   0.3006443   0.1736130   0.0000000), wk =   0.0400000
        k(   28) = (   0.3006531   0.2893396   0.0000000), wk =   0.0400000
        k(   29) = (   0.3006620   0.4050663   0.0000000), wk =   0.0400000
        k(   30) = (   0.3006708   0.5207929   0.0000000), wk =   0.0400000
        k(   31) = (   0.3006797   0.6365196   0.0000000), wk =   0.0400000
        k(   32) = (   0.3006001  -0.4050203   0.0000000), wk =   0.0400000
        k(   33) = (   0.3006089  -0.2892937   0.0000000), wk =   0.0400000
        k(   34) = (   0.3006178  -0.1735670   0.0000000), wk =   0.0400000
        k(   35) = (   0.3006266  -0.0578404   0.0000000), wk =   0.0400000
        k(   36) = (   0.3006355   0.0578863   0.0000000), wk =   0.0400000
        k(   37) = (   0.4008591   0.2314839   0.0000000), wk =   0.0400000
        k(   38) = (   0.4008679   0.3472106   0.0000000), wk =   0.0400000
        k(   39) = (   0.4008768   0.4629373   0.0000000), wk =   0.0400000
        k(   40) = (   0.4008856   0.5786639   0.0000000), wk =   0.0400000
        k(   41) = (   0.4008944   0.6943906   0.0000000), wk =   0.0400000
        k(   42) = (   0.4008149  -0.3471494   0.0000000), wk =   0.0400000
        k(   43) = (   0.4008237  -0.2314227   0.0000000), wk =   0.0400000
        k(   44) = (   0.4008326  -0.1156960   0.0000000), wk =   0.0400000
        k(   45) = (   0.4008414   0.0000306   0.0000000), wk =   0.0400000
        k(   46) = (   0.4008502   0.1157573   0.0000000), wk =   0.0400000
        k(   47) = (  -0.5010738  -0.2893549   0.0000000), wk =   0.0200000
        k(   48) = (  -0.5010650  -0.1736283   0.0000000), wk =   0.0400000
        k(   49) = (  -0.5010562  -0.0579016   0.0000000), wk =   0.0400000
        k(   50) = (  -0.5010473   0.0578250   0.0000000), wk =   0.0400000
        k(   51) = (  -0.5010385   0.1735517   0.0000000), wk =   0.0400000
        k(   52) = (  -0.5011181  -0.8679882   0.0000000), wk =   0.0200000

     Dense  grid:  2261433 G-vectors     FFT dimensions: ( 144, 144, 270)

     Smooth grid:   571933 G-vectors     FFT dimensions: (  90,  90, 180)

     Estimated max dynamical RAM per process >     535.22 MB

     Estimated total dynamical RAM >       8.36 GB

     Initial potential from superposition of free atoms

     starting charge  155.98644, renormalised to  156.00000

     negative rho (up, down):  1.383E-02 0.000E+00
     Starting wfcs are  416 randomized atomic wfcs

     total cpu time spent up to now is      844.8 secs

     Self-consistent Calculation

     iteration #  1     ecut=    60.00 Ry     beta= 0.30
     Davidson diagonalization with overlap
     ethr =  1.00E-02,  avg # of iterations =  2.0

     negative rho (up, down):  9.415E-03 0.000E+00

     total cpu time spent up to now is     1223.4 secs

     total energy              =    -496.68212867 Ry
     Harris-Foulkes estimate   =    -502.92519312 Ry
     estimated scf accuracy    <      13.47399418 Ry

     iteration #  2     ecut=    60.00 Ry     beta= 0.30
     Davidson diagonalization with overlap
     ethr =  8.64E-03,  avg # of iterations =  3.0

     negative rho (up, down):  6.131E-03 0.000E+00

     total cpu time spent up to now is     1580.1 secs

     total energy              =    -499.81243692 Ry
     Harris-Foulkes estimate   =    -503.25121072 Ry
     estimated scf accuracy    <      13.68047540 Ry

     iteration #  3     ecut=    60.00 Ry     beta= 0.30
     Davidson diagonalization with overlap
     ethr =  8.64E-03,  avg # of iterations =  1.2

     negative rho (up, down):  4.006E-03 0.000E+00

     total cpu time spent up to now is     1832.5 secs

     total energy              =    -500.84578114 Ry
     Harris-Foulkes estimate   =    -501.00403230 Ry
     estimated scf accuracy    <       0.91011352 Ry

     iteration #  4     ecut=    60.00 Ry     beta= 0.30
     Davidson diagonalization with overlap
     ethr =  5.83E-04,  avg # of iterations =  5.3

     negative rho (up, down):  2.700E-03 0.000E+00

     total cpu time spent up to now is     2250.3 secs

     total energy              =    -501.07535201 Ry
     Harris-Foulkes estimate   =    -501.11196174 Ry
     estimated scf accuracy    <       0.11335462 Ry

     iteration #  5     ecut=    60.00 Ry     beta= 0.30
     Davidson diagonalization with overlap
     ethr =  7.27E-05,  avg # of iterations =  2.7

     negative rho (up, down):  1.789E-03 0.000E+00

     total cpu time spent up to now is     2574.4 secs

     total energy              =    -501.08396722 Ry
     Harris-Foulkes estimate   =    -501.09593719 Ry
     estimated scf accuracy    <       0.05589333 Ry

     iteration #  6     ecut=    60.00 Ry     beta= 0.30
     Davidson diagonalization with overlap
     ethr =  3.58E-05,  avg # of iterations =  1.7

     negative rho (up, down):  1.188E-03 0.000E+00

     total cpu time spent up to now is     2832.8 secs

     total energy              =    -501.08812696 Ry
     Harris-Foulkes estimate   =    -501.09041754 Ry
     estimated scf accuracy    <       0.00899514 Ry

     iteration #  7     ecut=    60.00 Ry     beta= 0.30
     Davidson diagonalization with overlap
     ethr =  5.77E-06,  avg # of iterations =  4.6

     negative rho (up, down):  7.831E-04 0.000E+00

     total cpu time spent up to now is     3188.5 secs

     total energy              =    -501.08831421 Ry
     Harris-Foulkes estimate   =    -501.09066631 Ry
     estimated scf accuracy    <       0.00910985 Ry

     iteration #  8     ecut=    60.00 Ry     beta= 0.30
     Davidson diagonalization with overlap
     ethr =  5.77E-06,  avg # of iterations =  2.0

     negative rho (up, down):  5.196E-04 0.000E+00

     total cpu time spent up to now is     3447.0 secs

     total energy              =    -501.08953581 Ry
     Harris-Foulkes estimate   =    -501.08972518 Ry
     estimated scf accuracy    <       0.00137671 Ry

     iteration #  9     ecut=    60.00 Ry     beta= 0.30
     Davidson diagonalization with overlap
     ethr =  8.83E-07,  avg # of iterations =  3.1

     negative rho (up, down):  3.430E-04 0.000E+00

     total cpu time spent up to now is     3730.9 secs

     total energy              =    -501.08962688 Ry
     Harris-Foulkes estimate   =    -501.08973155 Ry
     estimated scf accuracy    <       0.00080413 Ry

     iteration # 10     ecut=    60.00 Ry     beta= 0.30
     Davidson diagonalization with overlap
     ethr =  5.15E-07,  avg # of iterations =  1.0

     negative rho (up, down):  2.250E-04 0.000E+00

     total cpu time spent up to now is     3982.5 secs

     total energy              =    -501.08964039 Ry
     Harris-Foulkes estimate   =    -501.08970908 Ry
     estimated scf accuracy    <       0.00063946 Ry

     iteration # 11     ecut=    60.00 Ry     beta= 0.30
     Davidson diagonalization with overlap
     ethr =  4.10E-07,  avg # of iterations =  1.0

     negative rho (up, down):  1.489E-04 0.000E+00

     total cpu time spent up to now is     4234.2 secs

     total energy              =    -501.08964454 Ry
     Harris-Foulkes estimate   =    -501.08967610 Ry
     estimated scf accuracy    <       0.00018318 Ry

     iteration # 12     ecut=    60.00 Ry     beta= 0.30
     Davidson diagonalization with overlap
     ethr =  1.17E-07,  avg # of iterations =  2.3

     total cpu time spent up to now is     4492.9 secs

     End of self-consistent calculation

          k = 0.0000 0.0000 0.0000 ( 71573 PWs)   bands (ev):

   -15.7558 -14.5562 -14.5278 -14.5270 -14.5218 -14.2173 -14.2172 -13.8674
   -13.8669 -13.8581 -13.7748 -13.5965 -13.5963 -13.3474 -13.1735 -13.1724
   -12.7713 -12.7710  -7.2159  -6.9600  -6.9594  -6.9269  -6.9265  -6.9222
    -6.7160  -6.5362  -6.5359  -6.2436  -5.9240  -5.9040  -5.8398  -5.8388
    -5.7283  -5.7278  -5.6803  -5.6120  -5.6115  -5.4269  -5.4269  -5.3151
    -5.3122  -5.1437  -4.7601  -4.7599  -4.7260  -4.6033  -4.3639  -4.3095
    -4.3086  -4.3046  -4.1894  -3.8005  -3.7990  -3.7197  -3.7188  -3.3752
    -3.3736  -3.3606  -3.1452  -3.0766  -3.0763  -2.9059  -2.9055  -2.8305
    -2.6767  -2.6765  -2.6154  -2.5149  -2.5141  -2.4835  -2.4027  -2.4026
    -2.3838  -1.8750  -1.8520  -1.8508  -0.8589  -0.8587  -0.7530  -0.4356
    -0.4348   0.6466   0.7097   1.0189   1.0342   1.0344   1.1071   1.1241
     1.1248   1.1940   1.2841   1.2853   1.7619   1.7646   1.9074   1.9079
     2.0444   2.0453   2.2643   2.2898

          k = 0.0000 0.1157 0.0000 ( 71609 PWs)   bands (ev):

   -15.7401 -14.6720 -14.5512 -14.5464 -14.4388 -14.1905 -14.1841 -13.9413
   -13.8729 -13.8025 -13.7413 -13.5991 -13.5876 -13.3322 -13.1827 -13.1804
   -12.7756 -12.7728  -7.2069  -7.0476  -6.9522  -6.9373  -6.9322  -6.8328
    -6.7429  -6.5325  -6.5185  -6.3487  -6.0807  -6.0090  -5.8843  -5.8191
    -5.6981  -5.6535  -5.6125  -5.5566  -5.4375  -5.4238  -5.4015  -5.2942
    -5.2781  -5.1091  -4.7549  -4.7434  -4.7073  -4.6287  -4.4246  -4.3553
    -4.3314  -4.3272  -4.1818  -3.8268  -3.7855  -3.7370  -3.7067  -3.4909
    -3.3698  -3.2985  -3.1580  -3.0346  -2.9943  -2.9261  -2.8800  -2.8417
    -2.7437  -2.7388  -2.6058  -2.5901  -2.4525  -2.4334  -2.4263  -2.3391
    -2.3088  -1.8697  -1.8557  -1.8338  -0.9010  -0.8740  -0.7292  -0.4804
    -0.4454   0.6963   0.7319   0.9678   0.9719   1.0166   1.0904   1.1737
     1.1963   1.1980   1.3185   1.3333   1.7431   1.7849   1.8870   1.8900
     2.0110   2.0271   2.1533   2.2365

          k = 0.0000 0.2315 0.0000 ( 71547 PWs)   bands (ev):

   -15.6935 -14.8428 -14.5978 -14.5191 -14.4369 -14.1131 -14.1063 -14.0247
   -13.8855 -13.7768 -13.6681 -13.5883 -13.5652 -13.3020 -13.2097 -13.1986
   -12.7880 -12.7759  -7.2339  -7.1153  -6.9855  -6.8823  -6.8814  -6.8409
    -6.7212  -6.6017  -6.5367  -6.4384  -6.2191  -6.1643  -6.0425  -5.9064
    -5.5566  -5.5446  -5.4873  -5.4599  -5.4038  -5.3371  -5.2643  -5.2286
    -5.1410  -5.0181  -4.7309  -4.6839  -4.6742  -4.6272  -4.5337  -4.4658
    -4.4049  -4.3968  -4.1647  -3.9148  -3.8768  -3.7464  -3.6603  -3.4879
    -3.3466  -3.3459  -3.1322  -3.0864  -3.0138  -2.8948  -2.8814  -2.8364
    -2.7480  -2.7343  -2.7107  -2.6172  -2.4396  -2.3335  -2.3309  -2.2588
    -2.1789  -1.8941  -1.8247  -1.8012  -1.0176  -0.8999  -0.6829  -0.5868
    -0.4627   0.7764   0.7978   0.8896   0.9177   1.0061   1.1097   1.2051
     1.2324   1.2805   1.4057   1.4304   1.6847   1.7474   1.8453   1.8550
     1.9185   2.0240   2.0307   2.1140

          k = 0.0000 0.3472 0.0000 ( 71508 PWs)   bands (ev):

   -15.6186 -15.0163 -14.6417 -14.4750 -14.4660 -14.1331 -14.0114 -14.0064
   -13.8976 -13.7821 -13.6021 -13.5551 -13.5387 -13.2832 -13.2420 -13.2172
   -12.8039 -12.7779  -7.3399  -7.0684  -7.0200  -6.9006  -6.7990  -6.7711
    -6.7475  -6.7024  -6.6146  -6.4283  -6.3062  -6.2821  -6.1769  -6.0142
    -5.5120  -5.4961  -5.3699  -5.3499  -5.3471  -5.2604  -5.2101  -5.0550
    -4.9666  -4.9603  -4.7854  -4.6733  -4.6517  -4.5976  -4.5076  -4.4983
    -4.4648  -4.3845  -4.1640  -4.0800  -4.0283  -3.7001  -3.5900  -3.4643
    -3.3486  -3.3065  -3.2969  -3.0878  -3.0575  -3.0566  -3.0116  -2.8989
    -2.7874  -2.6816  -2.5770  -2.5650  -2.3371  -2.2446  -2.2031  -2.1833
    -2.0815  -1.9060  -1.7921  -1.7783  -1.1838  -0.9198  -0.7029  -0.6463
    -0.4587   0.7720   0.7968   0.8977   0.9814   1.0496   1.1350   1.2598
     1.2772   1.3528   1.4588   1.5375   1.5766   1.6210   1.7208   1.7970
     1.8388   1.9684   2.0171   2.1095

          k = 0.0000 0.4629 0.0000 ( 71454 PWs)   bands (ev):

   -15.5232 -15.1745 -14.6710 -14.4905 -14.4200 -14.2158 -13.9461 -13.9355
   -13.8963 -13.7940 -13.5715 -13.5228 -13.5175 -13.2972 -13.2522 -13.2253
   -12.8173 -12.7779  -7.4220  -7.0371  -7.0154  -6.9053  -6.8590  -6.7364
    -6.6982  -6.6968  -6.6527  -6.4403  -6.3886  -6.3074  -6.2838  -6.1230
    -5.5121  -5.4720  -5.3517  -5.2597  -5.2333  -5.1906  -5.0986  -4.9763
    -4.9591  -4.8457  -4.7725  -4.7399  -4.7050  -4.6588  -4.5789  -4.5493
    -4.2876  -4.2525  -4.1816  -4.1660  -3.9552  -3.6757  -3.5278  -3.5216
    -3.4784  -3.2981  -3.2595  -3.2396  -3.2145  -3.1204  -3.0646  -3.0165
    -2.8774  -2.5674  -2.5153  -2.4259  -2.2392  -2.1954  -2.0977  -2.0967
    -2.0385  -1.8852  -1.7762  -1.7632  -1.3583  -0.9302  -0.7876  -0.6320
    -0.4329   0.7456   0.7578   0.9694   1.0639   1.1364   1.1526   1.2922
     1.3132   1.3820   1.4123   1.4770   1.5914   1.6177   1.6304   1.6989
     1.7741   1.9195   1.9493   1.9940

          k =-0.0000-0.5786 0.0000 ( 71476 PWs)   bands (ev):

   -15.4561 -15.2631 -14.6812 -14.4995 -14.3828 -14.2632 -13.9246 -13.9194
   -13.8777 -13.7991 -13.5671 -13.5102 -13.5095 -13.3092 -13.2526 -13.2258
   -12.8226 -12.7775  -7.4516  -7.0392  -7.0018  -6.9012  -6.8798  -6.7646
    -6.7237  -6.6335  -6.6056  -6.4875  -6.3968  -6.3265  -6.3138  -6.1781
    -5.5143  -5.4648  -5.3510  -5.2194  -5.1944  -5.1469  -5.0206  -4.9720
    -4.9577  -4.8724  -4.7711  -4.7574  -4.6673  -4.6290  -4.6066  -4.6025
    -4.4018  -4.2800  -4.1717  -3.8928  -3.8301  -3.6712  -3.6040  -3.5764
    -3.5067  -3.4590  -3.2985  -3.2230  -3.2080  -3.1568  -3.0794  -3.0494
    -2.9154  -2.5231  -2.4910  -2.3745  -2.2016  -2.1884  -2.0577  -2.0438
    -2.0273  -1.8675  -1.7743  -1.7501  -1.4494  -0.9332  -0.8179  -0.6293
    -0.4186   0.7366   0.7427   1.0514   1.1005   1.1158   1.1793   1.2335
     1.3361   1.3798   1.4217   1.4749   1.5496   1.5945   1.6369   1.7525
     1.7581   1.8187   1.8571   2.0070

          k = 0.1002 0.0579 0.0000 ( 71609 PWs)   bands (ev):

   -15.7401 -14.6720 -14.5510 -14.5464 -14.4392 -14.1904 -14.1840 -13.9414
   -13.8727 -13.8028 -13.7413 -13.5991 -13.5875 -13.3322 -13.1829 -13.1802
   -12.7758 -12.7726  -7.2069  -7.0475  -6.9523  -6.9373  -6.9322  -6.8328
    -6.7429  -6.5325  -6.5185  -6.3485  -6.0809  -6.0090  -5.8843  -5.8189
    -5.6980  -5.6536  -5.6126  -5.5566  -5.4374  -5.4237  -5.4015  -5.2948
    -5.2775  -5.1091  -4.7547  -4.7435  -4.7074  -4.6286  -4.4245  -4.3554
    -4.3314  -4.3273  -4.1817  -3.8269  -3.7854  -3.7370  -3.7066  -3.4909
    -3.3695  -3.2988  -3.1582  -3.0347  -2.9942  -2.9261  -2.8799  -2.8418
    -2.7437  -2.7387  -2.6059  -2.5902  -2.4526  -2.4334  -2.4260  -2.3392
    -2.3088  -1.8697  -1.8557  -1.8338  -0.9008  -0.8741  -0.7292  -0.4801
    -0.4457   0.6963   0.7319   0.9680   0.9720   1.0166   1.0901   1.1739
     1.1963   1.1979   1.3185   1.3333   1.7427   1.7852   1.8871   1.8900
     2.0109   2.0272   2.1533   2.2364

          k = 0.1002 0.1736 0.0000 ( 71573 PWs)   bands (ev):

   -15.7089 -14.7892 -14.6107 -14.5283 -14.4001 -14.1758 -14.1025 -14.0008
   -13.8895 -13.7723 -13.6887 -13.5989 -13.5693 -13.3101 -13.2036 -13.1905
   -12.7847 -12.7745  -7.2110  -7.1090  -6.9994  -6.9070  -6.8861  -6.7919
    -6.7618  -6.5633  -6.5214  -6.4386  -6.1882  -6.1086  -6.0496  -5.7817
    -5.6814  -5.5933  -5.5347  -5.4153  -5.3927  -5.3554  -5.3014  -5.2709
    -5.1946  -5.0387  -4.7496  -4.6940  -4.6778  -4.6462  -4.5110  -4.4341
    -4.3888  -4.3589  -4.1681  -3.8879  -3.8191  -3.7576  -3.6905  -3.4992
    -3.3706  -3.2964  -3.1762  -3.0622  -2.9394  -2.9138  -2.8771  -2.8417
    -2.7897  -2.7467  -2.6462  -2.5707  -2.4618  -2.4455  -2.3339  -2.2843
    -2.1922  -1.8886  -1.8366  -1.8062  -0.9792  -0.8943  -0.6969  -0.5505
    -0.4623   0.7660   0.7750   0.9056   0.9463   0.9679   1.1219   1.1928
     1.2282   1.2510   1.3850   1.3985   1.6993   1.7844   1.8475   1.8724
     1.9414   2.0279   2.0459   2.1563

          k = 0.1002 0.2893 0.0000 ( 71504 PWs)   bands (ev):

   -15.6480 -14.9418 -14.6855 -14.4924 -14.3843 -14.1212 -14.0862 -13.9971
   -13.9163 -13.7532 -13.6212 -13.5825 -13.5418 -13.2880 -13.2377 -13.2038
   -12.8000 -12.7757  -7.2888  -7.0987  -7.0504  -6.8518  -6.8347  -6.7923
    -6.7367  -6.6680  -6.5769  -6.4589  -6.2598  -6.2528  -6.1739  -5.8700
    -5.6120  -5.5576  -5.4410  -5.3827  -5.2844  -5.2492  -5.2268  -5.1241
    -5.0518  -4.9431  -4.7544  -4.7094  -4.6409  -4.6103  -4.5421  -4.4721
    -4.4402  -4.4168  -4.1614  -3.9988  -3.9824  -3.7144  -3.6645  -3.4480
    -3.3534  -3.3149  -3.2560  -3.1636  -3.0669  -2.9538  -2.8980  -2.7820
    -2.7521  -2.7078  -2.6395  -2.5824  -2.4251  -2.3715  -2.2222  -2.2012
    -2.0730  -1.9116  -1.8081  -1.7736  -1.1178  -0.9205  -0.6807  -0.6275
    -0.4718   0.7913   0.8335   0.8760   0.9404   0.9815   1.1537   1.2300
     1.2717   1.3276   1.4395   1.5120   1.6267   1.6326   1.7678   1.8388
     1.8840   1.9651   2.0334   2.0832

          k = 0.1002 0.4051 0.0000 ( 71473 PWs)   bands (ev):

   -15.5614 -15.1006 -14.7384 -14.4422 -14.3948 -14.1769 -14.0243 -13.9452
   -13.9200 -13.7518 -13.5771 -13.5499 -13.5189 -13.2965 -13.2540 -13.2121
   -12.8156 -12.7750  -7.3791  -7.1039  -7.0143  -6.9156  -6.7929  -6.7629
    -6.7034  -6.6827  -6.6445  -6.4550  -6.3805  -6.2907  -6.2635  -6.0065
    -5.5540  -5.5073  -5.4259  -5.3394  -5.2236  -5.1570  -5.0960  -5.0237
    -4.9042  -4.8690  -4.8112  -4.7455  -4.6735  -4.6225  -4.5620  -4.4921
    -4.4026  -4.2417  -4.2056  -4.1326  -4.0149  -3.6729  -3.6186  -3.4749
    -3.4444  -3.3276  -3.2785  -3.2354  -3.1709  -3.0261  -2.9757  -2.9241
    -2.8343  -2.6317  -2.5249  -2.4672  -2.3630  -2.2516  -2.1416  -2.0941
    -2.0091  -1.9001  -1.7876  -1.7525  -1.2894  -0.9447  -0.7420  -0.6302
    -0.4512   0.7753   0.7946   0.9236   1.0021   1.0727   1.1791   1.2781
     1.3258   1.3800   1.4432   1.4651   1.5786   1.6046   1.6387   1.7505
     1.7977   1.9425   1.9561   2.0576

          k = 0.1003 0.5208 0.0000 ( 71503 PWs)   bands (ev):

   -15.4666 -15.2345 -14.7651 -14.4067 -14.3871 -14.2482 -13.9675 -13.9394
   -13.8907 -13.7548 -13.5650 -13.5221 -13.5102 -13.3170 -13.2546 -13.2122
   -12.8255 -12.7736  -7.4326  -7.0903  -7.0323  -6.9216  -6.8145  -6.7450
    -6.7053  -6.6808  -6.5927  -6.4594  -6.4311  -6.3210  -6.3036  -6.1272
    -5.5488  -5.4436  -5.4280  -5.3263  -5.1751  -5.0710  -5.0135  -4.9839
    -4.8832  -4.8561  -4.8007  -4.7182  -4.6866  -4.6392  -4.6133  -4.5372
    -4.3710  -4.3093  -4.1642  -4.0755  -3.7748  -3.7179  -3.5913  -3.5727
    -3.4861  -3.4005  -3.3187  -3.2670  -3.2140  -3.1319  -3.0459  -2.9752
    -2.9053  -2.5583  -2.4700  -2.3822  -2.3213  -2.1887  -2.0693  -2.0355
    -1.9668  -1.8706  -1.7810  -1.7380  -1.4367  -0.9609  -0.7808  -0.6290
    -0.4253   0.7568   0.7728   1.0065   1.0686   1.1176   1.1897   1.2509
     1.3304   1.3791   1.3996   1.4723   1.5186   1.6022   1.6376   1.7280
     1.7654   1.8265   1.9179   1.9555

          k = 0.1002-0.5208 0.0000 ( 71501 PWs)   bands (ev):

   -15.4666 -15.2345 -14.7652 -14.4067 -14.3871 -14.2481 -13.9672 -13.9395
   -13.8908 -13.7548 -13.5651 -13.5226 -13.5097 -13.3167 -13.2550 -13.2121
   -12.8255 -12.7736  -7.4326  -7.0899  -7.0327  -6.9217  -6.8146  -6.7449
    -6.7057  -6.6805  -6.5927  -6.4600  -6.4308  -6.3211  -6.3034  -6.1273
    -5.5489  -5.4435  -5.4279  -5.3264  -5.1752  -5.0710  -5.0132  -4.9840
    -4.8834  -4.8560  -4.8009  -4.7182  -4.6870  -4.6391  -4.6130  -4.5371
    -4.3706  -4.3097  -4.1641  -4.0754  -3.7752  -3.7185  -3.5924  -3.5709
    -3.4864  -3.3997  -3.3188  -3.2671  -3.2135  -3.1321  -3.0464  -2.9752
    -2.9050  -2.5584  -2.4700  -2.3823  -2.3213  -2.1890  -2.0695  -2.0354
    -1.9669  -1.8703  -1.7811  -1.7380  -1.4364  -0.9607  -0.7810  -0.6289
    -0.4253   0.7567   0.7728   1.0064   1.0687   1.1180   1.1897   1.2511
     1.3306   1.3788   1.3995   1.4722   1.5188   1.6024   1.6371   1.7284
     1.7653   1.8251   1.9186   1.9556

          k = 0.1002-0.4050 0.0000 ( 71475 PWs)   bands (ev):

   -15.5614 -15.1006 -14.7385 -14.4422 -14.3949 -14.1768 -14.0236 -13.9458
   -13.9200 -13.7518 -13.5771 -13.5502 -13.5185 -13.2955 -13.2556 -13.2116
   -12.8157 -12.7750  -7.3790  -7.1036  -7.0142  -6.9162  -6.7931  -6.7628
    -6.7030  -6.6824  -6.6447  -6.4549  -6.3807  -6.2913  -6.2629  -6.0065
    -5.5544  -5.5069  -5.4256  -5.3394  -5.2240  -5.1570  -5.0960  -5.0232
    -4.9050  -4.8686  -4.8114  -4.7458  -4.6725  -4.6233  -4.5614  -4.4917
    -4.4032  -4.2412  -4.2068  -4.1320  -4.0154  -3.6732  -3.6175  -3.4749
    -3.4452  -3.3285  -3.2773  -3.2352  -3.1707  -3.0263  -2.9764  -2.9237
    -2.8339  -2.6320  -2.5247  -2.4673  -2.3630  -2.2524  -2.1418  -2.0938
    -2.0094  -1.8997  -1.7878  -1.7526  -1.2887  -0.9445  -0.7426  -0.6297
    -0.4510   0.7752   0.7946   0.9237   1.0024   1.0728   1.1798   1.2783
     1.3248   1.3801   1.4430   1.4654   1.5793   1.6033   1.6388   1.7497
     1.7980   1.9418   1.9555   2.0583

          k = 0.1002-0.2893 0.0000 ( 71506 PWs)   bands (ev):

   -15.6480 -14.9417 -14.6855 -14.4924 -14.3845 -14.1205 -14.0860 -13.9976
   -13.9163 -13.7533 -13.6212 -13.5826 -13.5416 -13.2871 -13.2393 -13.2032
   -12.8000 -12.7756  -7.2887  -7.0987  -7.0500  -6.8522  -6.8351  -6.7923
    -6.7365  -6.6675  -6.5771  -6.4586  -6.2596  -6.2536  -6.1736  -5.8698
    -5.6119  -5.5578  -5.4406  -5.3826  -5.2850  -5.2495  -5.2271  -5.1233
    -5.0522  -4.9429  -4.7544  -4.7088  -4.6410  -4.6106  -4.5424  -4.4719
    -4.4404  -4.4168  -4.1619  -3.9986  -3.9825  -3.7143  -3.6633  -3.4485
    -3.3534  -3.3152  -3.2557  -3.1637  -3.0671  -2.9551  -2.8971  -2.7816
    -2.7516  -2.7076  -2.6398  -2.5827  -2.4253  -2.3720  -2.2227  -2.2007
    -2.0731  -1.9118  -1.8081  -1.7736  -1.1170  -0.9207  -0.6821  -0.6257
    -0.4719   0.7911   0.8336   0.8763   0.9407   0.9814   1.1543   1.2300
     1.2706   1.3279   1.4398   1.5114   1.6260   1.6326   1.7683   1.8378
     1.8841   1.9651   2.0333   2.0830

          k = 0.1002-0.1736 0.0000 ( 71569 PWs)   bands (ev):

   -15.7089 -14.7892 -14.6105 -14.5283 -14.4004 -14.1751 -14.1030 -14.0006
   -13.8895 -13.7726 -13.6887 -13.5989 -13.5691 -13.3099 -13.2046 -13.1899
   -12.7848 -12.7744  -7.2111  -7.1089  -6.9991  -6.9073  -6.8860  -6.7924
    -6.7615  -6.5631  -6.5217  -6.4380  -6.1887  -6.1089  -6.0494  -5.7811
    -5.6813  -5.5937  -5.5345  -5.4152  -5.3930  -5.3554  -5.3013  -5.2721
    -5.1934  -5.0389  -4.7488  -4.6941  -4.6776  -4.6474  -4.5111  -4.4345
    -4.3887  -4.3584  -4.1681  -3.8885  -3.8196  -3.7569  -3.6895  -3.4992
    -3.3700  -3.2972  -3.1764  -3.0621  -2.9399  -2.9142  -2.8772  -2.8411
    -2.7891  -2.7475  -2.6448  -2.5720  -2.4622  -2.4447  -2.3342  -2.2842
    -2.1925  -1.8893  -1.8365  -1.8057  -0.9786  -0.8947  -0.6971  -0.5497
    -0.4626   0.7659   0.7752   0.9059   0.9461   0.9681   1.1218   1.1928
     1.2280   1.2508   1.3857   1.3977   1.6978   1.7845   1.8478   1.8734
     1.9407   2.0278   2.0459   2.1563

          k = 0.1002-0.0579 0.0000 ( 71607 PWs)   bands (ev):

   -15.7401 -14.6722 -14.5506 -14.5464 -14.4395 -14.1903 -14.1840 -13.9413
   -13.8725 -13.8031 -13.7414 -13.5990 -13.5874 -13.3322 -13.1835 -13.1797
   -12.7759 -12.7725  -7.2070  -7.0473  -6.9524  -6.9367  -6.9327  -6.8328
    -6.7428  -6.5328  -6.5183  -6.3481  -6.0813  -6.0092  -5.8840  -5.8186
    -5.6978  -5.6538  -5.6132  -5.5562  -5.4374  -5.4237  -5.4016  -5.2964
    -5.2759  -5.1092  -4.7545  -4.7434  -4.7077  -4.6287  -4.4245  -4.3560
    -4.3313  -4.3269  -4.1816  -3.8278  -3.7844  -3.7378  -3.7059  -3.4908
    -3.3687  -3.2996  -3.1585  -3.0345  -2.9943  -2.9258  -2.8797  -2.8422
    -2.7434  -2.7392  -2.6058  -2.5904  -2.4536  -2.4337  -2.4242  -2.3393
    -2.3093  -1.8703  -1.8559  -1.8330  -0.9006  -0.8743  -0.7291  -0.4798
    -0.4459   0.6963   0.7319   0.9681   0.9718   1.0171   1.0897   1.1740
     1.1964   1.1976   1.3178   1.3339   1.7410   1.7868   1.8870   1.8903
     2.0103   2.0276   2.1533   2.2364

          k = 0.2004 0.1157 0.0000 ( 71551 PWs)   bands (ev):

   -15.6935 -14.8428 -14.5976 -14.5191 -14.4374 -14.1130 -14.1061 -14.0247
   -13.8852 -13.7774 -13.6682 -13.5881 -13.5651 -13.3020 -13.2099 -13.1984
   -12.7882 -12.7758  -7.2338  -7.1152  -6.9855  -6.8822  -6.8814  -6.8410
    -6.7212  -6.6018  -6.5367  -6.4381  -6.2193  -6.1644  -6.0425  -5.9062
    -5.5566  -5.5448  -5.4873  -5.4599  -5.4037  -5.3371  -5.2647  -5.2284
    -5.1408  -5.0181  -4.7306  -4.6836  -4.6742  -4.6277  -4.5335  -4.4660
    -4.4050  -4.3968  -4.1647  -3.9148  -3.8768  -3.7464  -3.6601  -3.4879
    -3.3468  -3.3456  -3.1323  -3.0866  -3.0138  -2.8947  -2.8814  -2.8364
    -2.7480  -2.7345  -2.7109  -2.6170  -2.4397  -2.3332  -2.3310  -2.2589
    -2.1789  -1.8940  -1.8247  -1.8013  -1.0174  -0.9001  -0.6831  -0.5864
    -0.4627   0.7763   0.7976   0.8898   0.9179   1.0062   1.1094   1.2052
     1.2322   1.2806   1.4057   1.4304   1.6844   1.7476   1.8452   1.8551
     1.9185   2.0239   2.0307   2.1141

          k = 0.2004 0.2315 0.0000 ( 71506 PWs)   bands (ev):

   -15.6480 -14.9417 -14.6854 -14.4924 -14.3845 -14.1212 -14.0861 -13.9971
   -13.9162 -13.7535 -13.6212 -13.5823 -13.5418 -13.2880 -13.2378 -13.2038
   -12.8000 -12.7756  -7.2887  -7.0987  -7.0506  -6.8515  -6.8351  -6.7924
    -6.7365  -6.6681  -6.5768  -6.4588  -6.2596  -6.2531  -6.1738  -5.8699
    -5.6122  -5.5574  -5.4411  -5.3826  -5.2845  -5.2493  -5.2268  -5.1240
    -5.0518  -4.9431  -4.7545  -4.7089  -4.6409  -4.6104  -4.5422  -4.4722
    -4.4402  -4.4168  -4.1614  -3.9988  -3.9824  -3.7144  -3.6644  -3.4481
    -3.3533  -3.3149  -3.2561  -3.1637  -3.0669  -2.9539  -2.8980  -2.7822
    -2.7520  -2.7079  -2.6395  -2.5823  -2.4251  -2.3714  -2.2222  -2.2012
    -2.0730  -1.9116  -1.8082  -1.7736  -1.1177  -0.9206  -0.6805  -0.6277
    -0.4717   0.7912   0.8334   0.8762   0.9404   0.9815   1.1536   1.2301
     1.2716   1.3276   1.4395   1.5120   1.6263   1.6331   1.7678   1.8387
     1.8840   1.9651   2.0336   2.0832

          k = 0.2004 0.3472 0.0000 ( 71434 PWs)   bands (ev):

   -15.5746 -15.0571 -14.7943 -14.4497 -14.3105 -14.1528 -14.0956 -13.9663
   -13.9229 -13.7172 -13.5802 -13.5710 -13.5188 -13.2993 -13.2558 -13.2021
   -12.8162 -12.7724  -7.3439  -7.1576  -7.0201  -6.9132  -6.7979  -6.7441
    -6.6868  -6.6804  -6.6220  -6.4952  -6.3722  -6.2825  -6.2638  -5.8414
    -5.7177  -5.5719  -5.3913  -5.3306  -5.2358  -5.1770  -5.0525  -4.9946
    -4.9614  -4.8535  -4.7868  -4.7380  -4.7009  -4.6293  -4.5179  -4.5099
    -4.4555  -4.2456  -4.1964  -4.0708  -4.0196  -3.7212  -3.6571  -3.4628
    -3.4287  -3.3326  -3.2880  -3.2847  -3.1865  -2.9944  -2.8539  -2.8212
    -2.7280  -2.6990  -2.5848  -2.5085  -2.4713  -2.2617  -2.1428  -2.1077
    -1.9939  -1.9020  -1.7937  -1.7427  -1.2595  -0.9570  -0.7197  -0.6213
    -0.4653   0.8109   0.8414   0.8928   0.9303   1.0518   1.1908   1.2610
     1.3398   1.3803   1.4513   1.4646   1.5659   1.5893   1.6393   1.7674
     1.8387   1.9365   1.9585   2.0603

          k = 0.2005 0.4629 0.0000 ( 71486 PWs)   bands (ev):

   -15.4804 -15.1829 -14.8624 -14.3961 -14.2824 -14.2174 -14.0391 -13.9902
   -13.8958 -13.6968 -13.5624 -13.5485 -13.5108 -13.3263 -13.2566 -13.1949
   -12.8295 -12.7682  -7.3893  -7.1825  -7.0517  -6.9292  -6.7741  -6.7366
    -6.6914  -6.6569  -6.5898  -6.5095  -6.4265  -6.3127  -6.2974  -5.9793
    -5.6913  -5.5765  -5.3976  -5.2901  -5.1713  -5.1128  -4.9841  -4.9104
    -4.8563  -4.8233  -4.8003  -4.7421  -4.7079  -4.6206  -4.5465  -4.4980
    -4.3879  -4.3174  -4.2460  -4.1013  -3.7566  -3.7447  -3.6862  -3.5601
    -3.5015  -3.4516  -3.3501  -3.2822  -3.0960  -3.0244  -2.9762  -2.9075
    -2.8326  -2.6430  -2.6040  -2.4190  -2.3653  -2.1713  -2.0794  -2.0150
    -1.9627  -1.8506  -1.7905  -1.7235  -1.4155  -0.9910  -0.7338  -0.6288
    -0.4382   0.8240   0.8277   0.9394   0.9805   1.1084   1.2055   1.2801
     1.3270   1.3707   1.3922   1.4532   1.4915   1.5515   1.6674   1.7222
     1.7858   1.8300   1.9013   1.9973

          k = 0.2005 0.5786 0.0000 ( 71480 PWs)   bands (ev):

   -15.4100 -15.2658 -14.8843 -14.3583 -14.2857 -14.2524 -14.0264 -13.9611
   -13.9075 -13.6915 -13.5605 -13.5302 -13.5160 -13.3358 -13.2579 -13.1904
   -12.8345 -12.7663  -7.4081  -7.1575  -7.1240  -6.8905  -6.7898  -6.7142
    -6.6900  -6.6738  -6.5991  -6.5097  -6.3963  -6.3068  -6.2981  -6.0890
    -5.6686  -5.5775  -5.4039  -5.2802  -5.1316  -5.0981  -4.9558  -4.9120
    -4.8512  -4.8059  -4.7749  -4.7304  -4.6624  -4.5987  -4.5645  -4.5170
    -4.4184  -4.4060  -4.1125  -4.0351  -3.9478  -3.7343  -3.6126  -3.5653
    -3.4736  -3.3756  -3.3597  -3.2854  -3.2444  -3.0380  -3.0139  -2.9506
    -2.8723  -2.6162  -2.5959  -2.3907  -2.3191  -2.1491  -2.0600  -1.9709
    -1.9145  -1.8289  -1.8014  -1.7139  -1.5010  -1.0037  -0.7350  -0.6342
    -0.4238   0.8153   0.8288   1.0019   1.0382   1.0781   1.1720   1.2713
     1.3285   1.3543   1.3732   1.4462   1.4769   1.5575   1.6442   1.7151
     1.7857   1.8074   1.8852   1.9249

          k = 0.2004-0.4629 0.0000 ( 71475 PWs)   bands (ev):

   -15.4805 -15.1828 -14.8624 -14.3962 -14.2825 -14.2172 -14.0384 -13.9905
   -13.8961 -13.6968 -13.5625 -13.5489 -13.5103 -13.3258 -13.2573 -13.1948
   -12.8295 -12.7682  -7.3891  -7.1822  -7.0521  -6.9293  -6.7740  -6.7368
    -6.6908  -6.6569  -6.5896  -6.5096  -6.4271  -6.3126  -6.2972  -5.9793
    -5.6913  -5.5766  -5.3977  -5.2902  -5.1714  -5.1122  -4.9843  -4.9102
    -4.8563  -4.8234  -4.8005  -4.7432  -4.7070  -4.6204  -4.5464  -4.4978
    -4.3877  -4.3180  -4.2464  -4.1009  -3.7565  -3.7460  -3.6853  -3.5601
    -3.5014  -3.4518  -3.3505  -3.2819  -3.0955  -3.0244  -2.9756  -2.9081
    -2.8322  -2.6432  -2.6043  -2.4191  -2.3652  -2.1723  -2.0793  -2.0148
    -1.9636  -1.8495  -1.7911  -1.7237  -1.4145  -0.9908  -0.7343  -0.6284
    -0.4378   0.8240   0.8275   0.9392   0.9814   1.1088   1.2060   1.2801
     1.3274   1.3694   1.3920   1.4537   1.4914   1.5513   1.6669   1.7221
     1.7860   1.8283   1.9012   1.9980

          k = 0.2004-0.3472 0.0000 ( 71434 PWs)   bands (ev):

   -15.5747 -15.0570 -14.7943 -14.4498 -14.3107 -14.1526 -14.0947 -13.9667
   -13.9231 -13.7174 -13.5806 -13.5708 -13.5185 -13.2979 -13.2578 -13.2018
   -12.8163 -12.7723  -7.3437  -7.1573  -7.0200  -6.9138  -6.7980  -6.7440
    -6.6864  -6.6800  -6.6223  -6.4950  -6.3726  -6.2832  -6.2632  -5.8410
    -5.7178  -5.5721  -5.3914  -5.3305  -5.2363  -5.1765  -5.0518  -4.9953
    -4.9618  -4.8529  -4.7869  -4.7380  -4.6994  -4.6304  -4.5183  -4.5098
    -4.4552  -4.2456  -4.1974  -4.0702  -4.0203  -3.7208  -3.6560  -3.4628
    -3.4293  -3.3338  -3.2871  -3.2841  -3.1869  -2.9949  -2.8538  -2.8201
    -2.7280  -2.6992  -2.5853  -2.5088  -2.4711  -2.2632  -2.1424  -2.1076
    -1.9946  -1.9015  -1.7941  -1.7428  -1.2580  -0.9569  -0.7205  -0.6203
    -0.4649   0.8108   0.8415   0.8926   0.9312   1.0518   1.1916   1.2610
     1.3384   1.3801   1.4521   1.4645   1.5656   1.5884   1.6389   1.7669
     1.8383   1.9365   1.9571   2.0607

          k = 0.2004-0.2314 0.0000 ( 71502 PWs)   bands (ev):

   -15.6480 -14.9417 -14.6853 -14.4925 -14.3848 -14.1207 -14.0858 -13.9974
   -13.9162 -13.7539 -13.6212 -13.5821 -13.5416 -13.2869 -13.2397 -13.2033
   -12.8001 -12.7756  -7.2886  -7.0986  -7.0503  -6.8521  -6.8352  -6.7923
    -6.7363  -6.6674  -6.5770  -6.4586  -6.2606  -6.2529  -6.1736  -5.8694
    -5.6122  -5.5578  -5.4410  -5.3825  -5.2845  -5.2501  -5.2270  -5.1232
    -5.0520  -4.9430  -4.7541  -4.7079  -4.6411  -4.6111  -4.5427  -4.4721
    -4.4402  -4.4173  -4.1615  -3.9991  -3.9827  -3.7138  -3.6628  -3.4487
    -3.3531  -3.3148  -3.2561  -3.1641  -3.0670  -2.9546  -2.8975  -2.7829
    -2.7513  -2.7078  -2.6398  -2.5821  -2.4252  -2.3723  -2.2220  -2.2011
    -2.0735  -1.9121  -1.8081  -1.7733  -1.1165  -0.9209  -0.6816  -0.6261
    -0.4714   0.7913   0.8343   0.8764   0.9401   0.9816   1.1537   1.2303
     1.2710   1.3270   1.4402   1.5111   1.6261   1.6320   1.7675   1.8379
     1.8840   1.9651   2.0340   2.0831

          k = 0.2004-0.1157 0.0000 ( 71535 PWs)   bands (ev):

   -15.6936 -14.8429 -14.5971 -14.5192 -14.4377 -14.1131 -14.1060 -14.0244
   -13.8850 -13.7779 -13.6682 -13.5878 -13.5651 -13.3018 -13.2108 -13.1979
   -12.7882 -12.7757  -7.2339  -7.1151  -6.9854  -6.8825  -6.8810  -6.8415
    -6.7208  -6.6019  -6.5366  -6.4378  -6.2198  -6.1646  -6.0422  -5.9059
    -5.5568  -5.5449  -5.4876  -5.4595  -5.4037  -5.3369  -5.2660  -5.2281
    -5.1400  -5.0183  -4.7297  -4.6824  -4.6742  -4.6299  -4.5334  -4.4666
    -4.4049  -4.3966  -4.1644  -3.9156  -3.8773  -3.7454  -3.6591  -3.4879
    -3.3467  -3.3455  -3.1329  -3.0868  -3.0136  -2.8950  -2.8807  -2.8368
    -2.7477  -2.7353  -2.7116  -2.6160  -2.4407  -2.3316  -2.3313  -2.2590
    -2.1798  -1.8948  -1.8247  -1.8006  -1.0168  -0.9003  -0.6829  -0.5861
    -0.4626   0.7763   0.7983   0.8899   0.9176   1.0064   1.1089   1.2057
     1.2321   1.2798   1.4063   1.4298   1.6827   1.7478   1.8449   1.8555
     1.9184   2.0241   2.0306   2.1146

          k = 0.2004 0.0000 0.0000 ( 71569 PWs)   bands (ev):

   -15.7089 -14.7891 -14.6105 -14.5283 -14.4007 -14.1751 -14.1027 -14.0005
   -13.8893 -13.7729 -13.6888 -13.5989 -13.5688 -13.3099 -13.2047 -13.1898
   -12.7849 -12.7743  -7.2111  -7.1088  -6.9991  -6.9074  -6.8859  -6.7926
    -6.7614  -6.5632  -6.5218  -6.4377  -6.1888  -6.1090  -6.0493  -5.7810
    -5.6815  -5.5937  -5.5345  -5.4152  -5.3930  -5.3554  -5.3011  -5.2725
    -5.1931  -5.0390  -4.7486  -4.6942  -4.6774  -4.6477  -4.5109  -4.4347
    -4.3886  -4.3585  -4.1681  -3.8885  -3.8195  -3.7569  -3.6893  -3.4993
    -3.3695  -3.2975  -3.1766  -3.0621  -2.9401  -2.9142  -2.8771  -2.8411
    -2.7889  -2.7476  -2.6447  -2.5722  -2.4623  -2.4447  -2.3342  -2.2843
    -2.1925  -1.8892  -1.8363  -1.8060  -0.9784  -0.8948  -0.6973  -0.5492
    -0.4628   0.7658   0.7752   0.9061   0.9462   0.9682   1.1217   1.1927
     1.2277   1.2509   1.3859   1.3976   1.6976   1.7846   1.8480   1.8735
     1.9406   2.0278   2.0458   2.1562

          k = 0.3006 0.1736 0.0000 ( 71510 PWs)   bands (ev):

   -15.6186 -15.0162 -14.6415 -14.4751 -14.4664 -14.1330 -14.0113 -14.0062
   -13.8974 -13.7827 -13.6021 -13.5548 -13.5385 -13.2832 -13.2424 -13.2171
   -12.8040 -12.7778  -7.3398  -7.0684  -7.0201  -6.9007  -6.7990  -6.7711
    -6.7475  -6.7023  -6.6146  -6.4280  -6.3062  -6.2823  -6.1769  -6.0140
    -5.5121  -5.4960  -5.3699  -5.3500  -5.3471  -5.2602  -5.2103  -5.0549
    -4.9666  -4.9603  -4.7853  -4.6730  -4.6515  -4.5978  -4.5078  -4.4983
    -4.4648  -4.3848  -4.1640  -4.0799  -4.0283  -3.7001  -3.5897  -3.4645
    -3.3484  -3.3064  -3.2970  -3.0880  -3.0578  -3.0565  -3.0114  -2.8993
    -2.7873  -2.6815  -2.5770  -2.5650  -2.3373  -2.2443  -2.2032  -2.1834
    -2.0814  -1.9060  -1.7921  -1.7785  -1.1835  -0.9200  -0.7026  -0.6468
    -0.4583   0.7719   0.7968   0.8980   0.9815   1.0499   1.1348   1.2598
     1.2769   1.3527   1.4588   1.5377   1.5766   1.6209   1.7208   1.7968
     1.8389   1.9683   2.0173   2.1096

          k = 0.3007 0.2893 0.0000 ( 71471 PWs)   bands (ev):

   -15.5614 -15.1006 -14.7384 -14.4422 -14.3950 -14.1768 -14.0241 -13.9452
   -13.9199 -13.7522 -13.5770 -13.5496 -13.5189 -13.2965 -13.2542 -13.2120
   -12.8157 -12.7750  -7.3790  -7.1040  -7.0144  -6.9156  -6.7930  -6.7628
    -6.7033  -6.6828  -6.6444  -6.4549  -6.3806  -6.2909  -6.2635  -6.0064
    -5.5542  -5.5072  -5.4259  -5.3395  -5.2236  -5.1570  -5.0961  -5.0238
    -4.9041  -4.8688  -4.8113  -4.7455  -4.6731  -4.6226  -4.5621  -4.4921
    -4.4025  -4.2419  -4.2055  -4.1325  -4.0150  -3.6730  -3.6185  -3.4748
    -3.4447  -3.3273  -3.2785  -3.2352  -3.1712  -3.0261  -2.9760  -2.9241
    -2.8342  -2.6316  -2.5250  -2.4671  -2.3630  -2.2517  -2.1416  -2.0940
    -2.0092  -1.9001  -1.7877  -1.7525  -1.2891  -0.9448  -0.7417  -0.6308
    -0.4507   0.7752   0.7947   0.9238   1.0021   1.0727   1.1790   1.2780
     1.3257   1.3799   1.4434   1.4653   1.5784   1.6048   1.6387   1.7501
     1.7978   1.9427   1.9560   2.0575

          k = 0.3007 0.4051 0.0000 ( 71486 PWs)   bands (ev):

   -15.4805 -15.1828 -14.8624 -14.3962 -14.2824 -14.2174 -14.0390 -13.9902
   -13.8958 -13.6970 -13.5623 -13.5483 -13.5108 -13.3263 -13.2566 -13.1949
   -12.8295 -12.7682  -7.3892  -7.1826  -7.0518  -6.9292  -6.7740  -6.7366
    -6.6915  -6.6569  -6.5897  -6.5095  -6.4266  -6.3127  -6.2974  -5.9792
    -5.6914  -5.5765  -5.3976  -5.2902  -5.1712  -5.1128  -4.9843  -4.9105
    -4.8562  -4.8232  -4.8005  -4.7419  -4.7079  -4.6205  -4.5466  -4.4980
    -4.3878  -4.3174  -4.2461  -4.1013  -3.7565  -3.7447  -3.6862  -3.5602
    -3.5016  -3.4517  -3.3499  -3.2823  -3.0961  -3.0246  -2.9764  -2.9072
    -2.8327  -2.6429  -2.6039  -2.4190  -2.3653  -2.1715  -2.0793  -2.0150
    -1.9627  -1.8506  -1.7906  -1.7236  -1.4153  -0.9911  -0.7336  -0.6291
    -0.4379   0.8239   0.8278   0.9395   0.9806   1.1084   1.2055   1.2802
     1.3269   1.3707   1.3920   1.4534   1.4915   1.5516   1.6674   1.7221
     1.7858   1.8300   1.9014   1.9973

          k = 0.3007 0.5208 0.0000 ( 71514 PWs)   bands (ev):

   -15.3864 -15.2696 -14.9375 -14.3457 -14.2752 -14.1901 -14.0606 -13.9853
   -13.9199 -13.6589 -13.5590 -13.5413 -13.5191 -13.3420 -13.2594 -13.1808
   -12.8382 -12.7630  -7.3815  -7.2083  -7.1532  -6.8722  -6.7969  -6.7121
    -6.6726  -6.6355  -6.6048  -6.5698  -6.3847  -6.3108  -6.2479  -6.0337
    -5.8114  -5.5867  -5.3981  -5.2608  -5.1245  -5.0862  -4.9512  -4.9102
    -4.8188  -4.7970  -4.7567  -4.6903  -4.6594  -4.6107  -4.5252  -4.4922
    -4.4752  -4.4130  -4.1156  -4.0237  -3.8898  -3.8623  -3.7281  -3.5480
    -3.4740  -3.4037  -3.3275  -3.2908  -3.0316  -3.0263  -2.9949  -2.9366
    -2.8463  -2.8103  -2.6679  -2.3476  -2.3119  -2.1316  -2.0683  -1.9232
    -1.8950  -1.8215  -1.8094  -1.7104  -1.5262  -1.0198  -0.7059  -0.6444
    -0.4236   0.8672   0.8874   0.9604   0.9929   1.0646   1.1599   1.3051
     1.3167   1.3327   1.3653   1.4317   1.4506   1.5413   1.6420   1.7102
     1.7894   1.8073   1.8628   1.9420

          k = 0.3007 0.6365 0.0000 ( 71514 PWs)   bands (ev):

   -15.3866 -15.2694 -14.9375 -14.3459 -14.2749 -14.1901 -14.0606 -13.9850
   -13.9201 -13.6589 -13.5590 -13.5417 -13.5186 -13.3418 -13.2597 -13.1809
   -12.8382 -12.7630  -7.3813  -7.2082  -7.1534  -6.8723  -6.7967  -6.7125
    -6.6719  -6.6353  -6.6048  -6.5702  -6.3850  -6.3108  -6.2475  -6.0337
    -5.8114  -5.5867  -5.3982  -5.2608  -5.1243  -5.0859  -4.9516  -4.9101
    -4.8185  -4.7972  -4.7568  -4.6906  -4.6603  -4.6096  -4.5253  -4.4919
    -4.4749  -4.4133  -4.1163  -4.0239  -3.8895  -3.8617  -3.7283  -3.5476
    -3.4738  -3.4039  -3.3283  -3.2914  -3.0312  -3.0254  -2.9941  -2.9372
    -2.8466  -2.8102  -2.6681  -2.3477  -2.3118  -2.1320  -2.0684  -1.9222
    -1.8969  -1.8218  -1.8086  -1.7105  -1.5254  -1.0196  -0.7062  -0.6442
    -0.4233   0.8672   0.8873   0.9600   0.9939   1.0650   1.1597   1.3058
     1.3166   1.3323   1.3646   1.4313   1.4509   1.5414   1.6419   1.7102
     1.7883   1.8073   1.8627   1.9423

          k = 0.3006-0.4050 0.0000 ( 71486 PWs)   bands (ev):

   -15.4807 -15.1827 -14.8623 -14.3964 -14.2825 -14.2169 -14.0386 -13.9903
   -13.8961 -13.6972 -13.5623 -13.5484 -13.5103 -13.3258 -13.2575 -13.1951
   -12.8295 -12.7682  -7.3889  -7.1824  -7.0520  -6.9293  -6.7739  -6.7370
    -6.6907  -6.6567  -6.5893  -6.5099  -6.4272  -6.3126  -6.2973  -5.9790
    -5.6915  -5.5766  -5.3979  -5.2904  -5.1711  -5.1118  -4.9848  -4.9103
    -4.8567  -4.8232  -4.8003  -4.7421  -4.7073  -4.6201  -4.5467  -4.4978
    -4.3877  -4.3179  -4.2466  -4.1012  -3.7564  -3.7460  -3.6850  -3.5598
    -3.5016  -3.4517  -3.3501  -3.2824  -3.0957  -3.0249  -2.9767  -2.9072
    -2.8319  -2.6434  -2.6037  -2.4193  -2.3653  -2.1729  -2.0792  -2.0143
    -1.9642  -1.8495  -1.7915  -1.7239  -1.4135  -0.9908  -0.7341  -0.6289
    -0.4371   0.8240   0.8281   0.9391   0.9816   1.1087   1.2059   1.2801
     1.3269   1.3696   1.3914   1.4541   1.4910   1.5514   1.6667   1.7217
     1.7855   1.8285   1.9013   1.9979

          k = 0.3006-0.2893 0.0000 ( 71478 PWs)   bands (ev):

   -15.5615 -15.1005 -14.7381 -14.4423 -14.3951 -14.1765 -14.0236 -13.9455
   -13.9201 -13.7526 -13.5769 -13.5494 -13.5186 -13.2951 -13.2562 -13.2120
   -12.8157 -12.7750  -7.3787  -7.1038  -7.0144  -6.9162  -6.7924  -6.7632
    -6.7027  -6.6827  -6.6441  -6.4549  -6.3811  -6.2913  -6.2632  -6.0061
    -5.5543  -5.5072  -5.4259  -5.3398  -5.2236  -5.1570  -5.0961  -5.0236
    -4.9043  -4.8689  -4.8112  -4.7454  -4.6716  -4.6232  -4.5621  -4.4919
    -4.4033  -4.2419  -4.2061  -4.1321  -4.0162  -3.6726  -3.6167  -3.4747
    -3.4453  -3.3281  -3.2776  -3.2349  -3.1716  -3.0259  -2.9775  -2.9242
    -2.8335  -2.6318  -2.5251  -2.4671  -2.3624  -2.2538  -2.1409  -2.0940
    -2.0098  -1.9003  -1.7882  -1.7524  -1.2873  -0.9447  -0.7419  -0.6306
    -0.4498   0.7754   0.7955   0.9237   1.0021   1.0729   1.1794   1.2782
     1.3251   1.3787   1.4435   1.4655   1.5781   1.6037   1.6380   1.7490
     1.7980   1.9426   1.9548   2.0583

          k = 0.3006-0.1736 0.0000 ( 71502 PWs)   bands (ev):

   -15.6187 -15.0163 -14.6411 -14.4752 -14.4666 -14.1329 -14.0111 -14.0063
   -13.8972 -13.7833 -13.6020 -13.5545 -13.5384 -13.2820 -13.2441 -13.2169
   -12.8041 -12.7778  -7.3396  -7.0684  -7.0199  -6.9011  -6.7992  -6.7711
    -6.7472  -6.7017  -6.6145  -6.4280  -6.3065  -6.2827  -6.1769  -6.0137
    -5.5123  -5.4961  -5.3698  -5.3503  -5.3472  -5.2599  -5.2109  -5.0541
    -4.9667  -4.9604  -4.7851  -4.6717  -4.6511  -4.5983  -4.5083  -4.4986
    -4.4644  -4.3861  -4.1634  -4.0801  -4.0292  -3.6991  -3.5884  -3.4650
    -3.3478  -3.3063  -3.2975  -3.0893  -3.0575  -3.0561  -3.0107  -2.9007
    -2.7875  -2.6814  -2.5768  -2.5650  -2.3384  -2.2428  -2.2035  -2.1836
    -2.0822  -1.9068  -1.7923  -1.7780  -1.1822  -0.9202  -0.7022  -0.6469
    -0.4575   0.7721   0.7979   0.8979   0.9808   1.0503   1.1344   1.2600
     1.2769   1.3515   1.4594   1.5371   1.5766   1.6197   1.7197   1.7954
     1.8401   1.9680   2.0184   2.1096

          k = 0.3006-0.0578 0.0000 ( 71504 PWs)   bands (ev):

   -15.6480 -14.9417 -14.6853 -14.4925 -14.3849 -14.1208 -14.0857 -13.9972
   -13.9162 -13.7541 -13.6213 -13.5824 -13.5412 -13.2868 -13.2399 -13.2032
   -12.8001 -12.7755  -7.2886  -7.0987  -7.0501  -6.8520  -6.8356  -6.7923
    -6.7361  -6.6674  -6.5771  -6.4583  -6.2603  -6.2535  -6.1735  -5.8695
    -5.6123  -5.5577  -5.4408  -5.3826  -5.2846  -5.2502  -5.2269  -5.1230
    -5.0520  -4.9430  -4.7542  -4.7076  -4.6409  -4.6110  -4.5429  -4.4722
    -4.4403  -4.4173  -4.1616  -3.9990  -3.9826  -3.7138  -3.6626  -3.4487
    -3.3529  -3.3149  -3.2562  -3.1641  -3.0670  -2.9549  -2.8974  -2.7829
    -2.7512  -2.7078  -2.6397  -2.5821  -2.4253  -2.3725  -2.2221  -2.2010
    -2.0735  -1.9120  -1.8079  -1.7737  -1.1163  -0.9209  -0.6822  -0.6254
    -0.4714   0.7912   0.8342   0.8763   0.9401   0.9819   1.1537   1.2303
     1.2707   1.3271   1.4402   1.5111   1.6257   1.6325   1.7678   1.8377
     1.8839   1.9651   2.0340   2.0830

          k = 0.3006 0.0579 0.0000 ( 71506 PWs)   bands (ev):

   -15.6480 -14.9416 -14.6855 -14.4924 -14.3849 -14.1204 -14.0860 -13.9974
   -13.9163 -13.7537 -13.6213 -13.5826 -13.5412 -13.2871 -13.2396 -13.2031
   -12.8001 -12.7755  -7.2886  -7.0988  -7.0500  -6.8526  -6.8349  -6.7922
    -6.7365  -6.6675  -6.5772  -6.4582  -6.2601  -6.2535  -6.1736  -5.8697
    -5.6119  -5.5580  -5.4406  -5.3826  -5.2848  -5.2497  -5.2271  -5.1230
    -5.0521  -4.9430  -4.7541  -4.7087  -4.6408  -4.6107  -4.5426  -4.4719
    -4.4404  -4.4170  -4.1620  -3.9985  -3.9823  -3.7143  -3.6631  -3.4487
    -3.3531  -3.3151  -3.2558  -3.1640  -3.0670  -2.9553  -2.8971  -2.7817
    -2.7516  -2.7076  -2.6398  -2.5826  -2.4253  -2.3722  -2.2226  -2.2007
    -2.0731  -1.9117  -1.8079  -1.7739  -1.1166  -0.9208  -0.6826  -0.6251
    -0.4718   0.7910   0.8335   0.8765   0.9408   0.9817   1.1541   1.2300
     1.2703   1.3280   1.4398   1.5114   1.6263   1.6323   1.7685   1.8376
     1.8840   1.9651   2.0332   2.0829

          k = 0.4009 0.2315 0.0000 ( 71456 PWs)   bands (ev):

   -15.5233 -15.1743 -14.6708 -14.4909 -14.4200 -14.2156 -13.9459 -13.9354
   -13.8961 -13.7946 -13.5715 -13.5225 -13.5173 -13.2972 -13.2526 -13.2253
   -12.8175 -12.7778  -7.4219  -7.0372  -7.0154  -6.9055  -6.8590  -6.7363
    -6.6981  -6.6968  -6.6527  -6.4403  -6.3886  -6.3076  -6.2838  -6.1227
    -5.5122  -5.4718  -5.3519  -5.2598  -5.2334  -5.1905  -5.0987  -4.9763
    -4.9590  -4.8456  -4.7723  -4.7398  -4.7053  -4.6585  -4.5791  -4.5491
    -4.2876  -4.2524  -4.1817  -4.1660  -3.9555  -3.6758  -3.5278  -3.5213
    -3.4786  -3.2981  -3.2593  -3.2396  -3.2144  -3.1204  -3.0650  -3.0166
    -2.8773  -2.5675  -2.5154  -2.4259  -2.2394  -2.1951  -2.0978  -2.0969
    -2.0383  -1.8853  -1.7763  -1.7634  -1.3578  -0.9304  -0.7872  -0.6327
    -0.4323   0.7455   0.7579   0.9696   1.0638   1.1368   1.1525   1.2919
     1.3131   1.3817   1.4124   1.4770   1.5914   1.6177   1.6304   1.6987
     1.7741   1.9194   1.9493   1.9938

          k = 0.4009 0.3472 0.0000 ( 71503 PWs)   bands (ev):

   -15.4667 -15.2343 -14.7651 -14.4070 -14.3872 -14.2480 -13.9675 -13.9392
   -13.8906 -13.7552 -13.5650 -13.5218 -13.5101 -13.3171 -13.2548 -13.2123
   -12.8256 -12.7736  -7.4325  -7.0904  -7.0323  -6.9216  -6.8145  -6.7450
    -6.7052  -6.6808  -6.5927  -6.4596  -6.4310  -6.3211  -6.3037  -6.1270
    -5.5488  -5.4437  -5.4279  -5.3265  -5.1750  -5.0708  -5.0139  -4.9841
    -4.8826  -4.8563  -4.8007  -4.7181  -4.6866  -4.6391  -4.6130  -4.5372
    -4.3710  -4.3091  -4.1643  -4.0756  -3.7750  -3.7178  -3.5913  -3.5726
    -3.4860  -3.4007  -3.3187  -3.2668  -3.2143  -3.1317  -3.0462  -2.9751
    -2.9052  -2.5583  -2.4701  -2.3822  -2.3213  -2.1890  -2.0693  -2.0353
    -1.9669  -1.8705  -1.7811  -1.7382  -1.4361  -0.9609  -0.7805  -0.6297
    -0.4248   0.7568   0.7728   1.0067   1.0687   1.1176   1.1900   1.2507
     1.3303   1.3788   1.3996   1.4724   1.5186   1.6024   1.6374   1.7278
     1.7655   1.8264   1.9178   1.9555

          k = 0.4009 0.4629 0.0000 ( 71478 PWs)   bands (ev):

   -15.4101 -15.2656 -14.8843 -14.3585 -14.2856 -14.2523 -14.0264 -13.9610
   -13.9074 -13.6917 -13.5605 -13.5301 -13.5157 -13.3358 -13.2580 -13.1905
   -12.8346 -12.7663  -7.4080  -7.1578  -7.1239  -6.8906  -6.7897  -6.7143
    -6.6900  -6.6737  -6.5990  -6.5097  -6.3966  -6.3068  -6.2981  -6.0888
    -5.6687  -5.5775  -5.4040  -5.2803  -5.1315  -5.0980  -4.9560  -4.9121
    -4.8514  -4.8057  -4.7749  -4.7301  -4.6625  -4.5984  -4.5644  -4.5170
    -4.4184  -4.4059  -4.1126  -4.0353  -3.9479  -3.7341  -3.6125  -3.5652
    -3.4737  -3.3756  -3.3599  -3.2856  -3.2444  -3.0379  -3.0139  -2.9505
    -2.8724  -2.6162  -2.5958  -2.3907  -2.3191  -2.1493  -2.0601  -1.9708
    -1.9146  -1.8286  -1.8016  -1.7141  -1.5005  -1.0037  -0.7348  -0.6347
    -0.4234   0.8154   0.8287   1.0021   1.0385   1.0780   1.1722   1.2713
     1.3284   1.3542   1.3728   1.4465   1.4770   1.5575   1.6441   1.7150
     1.7855   1.8073   1.8853   1.9249

          k = 0.4009 0.5787 0.0000 ( 71514 PWs)   bands (ev):

   -15.3867 -15.2692 -14.9375 -14.3461 -14.2748 -14.1902 -14.0606 -13.9850
   -13.9200 -13.6590 -13.5590 -13.5419 -13.5182 -13.3418 -13.2598 -13.1809
   -12.8382 -12.7630  -7.3813  -7.2083  -7.1534  -6.8724  -6.7967  -6.7126
    -6.6718  -6.6354  -6.6048  -6.5700  -6.3852  -6.3108  -6.2474  -6.0337
    -5.8114  -5.5867  -5.3983  -5.2609  -5.1242  -5.0859  -4.9516  -4.9100
    -4.8185  -4.7972  -4.7567  -4.6906  -4.6604  -4.6095  -4.5253  -4.4919
    -4.4747  -4.4134  -4.1165  -4.0240  -3.8893  -3.8616  -3.7284  -3.5476
    -3.4739  -3.4040  -3.3285  -3.2914  -3.0310  -3.0252  -2.9940  -2.9373
    -2.8468  -2.8103  -2.6681  -2.3478  -2.3117  -2.1320  -2.0685  -1.9219
    -1.8973  -1.8218  -1.8084  -1.7106  -1.5252  -1.0196  -0.7062  -0.6443
    -0.4232   0.8672   0.8872   0.9601   0.9940   1.0651   1.1597   1.3061
     1.3164   1.3323   1.3644   1.4312   1.4511   1.5413   1.6419   1.7102
     1.7881   1.8072   1.8627   1.9423

          k = 0.4009 0.6944 0.0000 ( 71478 PWs)   bands (ev):

   -15.4104 -15.2653 -14.8842 -14.3589 -14.2856 -14.2519 -14.0266 -13.9606
   -13.9077 -13.6920 -13.5602 -13.5303 -13.5152 -13.3356 -13.2584 -13.1908
   -12.8346 -12.7663  -7.4077  -7.1580  -7.1238  -6.8907  -6.7896  -6.7151
    -6.6894  -6.6730  -6.5988  -6.5102  -6.3969  -6.3068  -6.2980  -6.0885
    -5.6688  -5.5775  -5.4044  -5.2804  -5.1314  -5.0972  -4.9566  -4.9118
    -4.8520  -4.8056  -4.7757  -4.7290  -4.6629  -4.5976  -4.5645  -4.5172
    -4.4182  -4.4060  -4.1127  -4.0359  -3.9487  -3.7332  -3.6120  -3.5646
    -3.4735  -3.3755  -3.3611  -3.2864  -3.2445  -3.0376  -3.0139  -2.9503
    -2.8718  -2.6166  -2.5953  -2.3910  -2.3192  -2.1501  -2.0603  -1.9697
    -1.9164  -1.8279  -1.8023  -1.7146  -1.4987  -1.0035  -0.7349  -0.6348
    -0.4226   0.8159   0.8287   1.0023   1.0391   1.0779   1.1720   1.2715
     1.3281   1.3537   1.3716   1.4476   1.4760   1.5580   1.6438   1.7144
     1.7851   1.8067   1.8854   1.9250

          k = 0.4008-0.3471 0.0000 ( 71505 PWs)   bands (ev):

   -15.4670 -15.2342 -14.7649 -14.4067 -14.3878 -14.2475 -13.9675 -13.9391
   -13.8909 -13.7557 -13.5645 -13.5218 -13.5096 -13.3164 -13.2558 -13.2126
   -12.8256 -12.7736  -7.4321  -7.0902  -7.0327  -6.9216  -6.8144  -6.7448
    -6.7057  -6.6800  -6.5924  -6.4598  -6.4316  -6.3212  -6.3037  -6.1267
    -5.5490  -5.4437  -5.4282  -5.3268  -5.1749  -5.0700  -5.0144  -4.9843
    -4.8826  -4.8563  -4.8006  -4.7178  -4.6872  -4.6383  -4.6131  -4.5371
    -4.3708  -4.3095  -4.1636  -4.0765  -3.7761  -3.7186  -3.5902  -3.5715
    -3.4862  -3.4002  -3.3188  -3.2676  -3.2141  -3.1317  -3.0470  -2.9753
    -2.9043  -2.5584  -2.4705  -2.3819  -2.3209  -2.1906  -2.0692  -2.0349
    -1.9679  -1.8706  -1.7820  -1.7385  -1.4336  -0.9607  -0.7804  -0.6300
    -0.4235   0.7573   0.7735   1.0067   1.0688   1.1180   1.1904   1.2502
     1.3305   1.3765   1.3997   1.4724   1.5180   1.6027   1.6367   1.7273
     1.7652   1.8251   1.9182   1.9554

          k = 0.4008-0.2314 0.0000 ( 71444 PWs)   bands (ev):

   -15.5235 -15.1743 -14.6704 -14.4910 -14.4203 -14.2153 -13.9458 -13.9356
   -13.8959 -13.7953 -13.5711 -13.5221 -13.5173 -13.2961 -13.2542 -13.2255
   -12.8174 -12.7779  -7.4216  -7.0370  -7.0157  -6.9059  -6.8583  -6.7359
    -6.6980  -6.6974  -6.6520  -6.4402  -6.3891  -6.3078  -6.2839  -6.1223
    -5.5124  -5.4719  -5.3521  -5.2597  -5.2337  -5.1904  -5.0989  -4.9757
    -4.9588  -4.8457  -4.7724  -4.7396  -4.7059  -4.6573  -4.5796  -4.5489
    -4.2877  -4.2528  -4.1819  -4.1653  -3.9571  -3.6750  -3.5275  -3.5198
    -3.4792  -3.2984  -3.2591  -3.2402  -3.2142  -3.1200  -3.0659  -3.0173
    -2.8767  -2.5675  -2.5157  -2.4261  -2.2403  -2.1938  -2.0981  -2.0974
    -2.0387  -1.8862  -1.7769  -1.7631  -1.3557  -0.9304  -0.7868  -0.6331
    -0.4310   0.7458   0.7589   0.9696   1.0634   1.1377   1.1524   1.2913
     1.3131   1.3801   1.4129   1.4765   1.5909   1.6177   1.6294   1.6974
     1.7748   1.9189   1.9492   1.9935

          k = 0.4008-0.1157 0.0000 ( 71478 PWs)   bands (ev):

   -15.5616 -15.1005 -14.7382 -14.4424 -14.3951 -14.1765 -14.0237 -13.9454
   -13.9199 -13.7527 -13.5770 -13.5498 -13.5181 -13.2950 -13.2565 -13.2119
   -12.8158 -12.7750  -7.3787  -7.1038  -7.0143  -6.9163  -6.7926  -6.7631
    -6.7025  -6.6827  -6.6442  -6.4548  -6.3811  -6.2915  -6.2631  -6.0061
    -5.5545  -5.5071  -5.4259  -5.3397  -5.2237  -5.1570  -5.0961  -5.0233
    -4.9044  -4.8689  -4.8113  -4.7453  -4.6714  -4.6235  -4.5621  -4.4918
    -4.4034  -4.2418  -4.2064  -4.1319  -4.0163  -3.6726  -3.6165  -3.4746
    -3.4456  -3.3283  -3.2774  -3.2345  -3.1718  -3.0260  -2.9776  -2.9241
    -2.8335  -2.6319  -2.5250  -2.4670  -2.3625  -2.2540  -2.1410  -2.0939
    -2.0098  -1.9001  -1.7880  -1.7527  -1.2871  -0.9447  -0.7422  -0.6304
    -0.4497   0.7754   0.7955   0.9236   1.0021   1.0732   1.1794   1.2781
     1.3250   1.3785   1.4436   1.4656   1.5783   1.6037   1.6379   1.7489
     1.7979   1.9426   1.9547   2.0583

          k = 0.4008 0.0000 0.0000 ( 71434 PWs)   bands (ev):

   -15.5748 -15.0569 -14.7944 -14.4498 -14.3109 -14.1524 -14.0947 -13.9667
   -13.9229 -13.7176 -13.5807 -13.5709 -13.5180 -13.2978 -13.2581 -13.2017
   -12.8163 -12.7723  -7.3436  -7.1574  -7.0200  -6.9140  -6.7981  -6.7439
    -6.6863  -6.6800  -6.6224  -6.4947  -6.3727  -6.2833  -6.2631  -5.8410
    -5.7178  -5.5722  -5.3914  -5.3305  -5.2364  -5.1764  -5.0516  -4.9953
    -4.9619  -4.8529  -4.7869  -4.7379  -4.6991  -4.6307  -4.5183  -4.5098
    -4.4554  -4.2455  -4.1976  -4.0699  -4.0204  -3.7207  -3.6559  -3.4627
    -3.4295  -3.3341  -3.2870  -3.2837  -3.1871  -2.9950  -2.8539  -2.8199
    -2.7280  -2.6993  -2.5855  -2.5088  -2.4710  -2.2635  -2.1425  -2.1074
    -1.9947  -1.9012  -1.7940  -1.7431  -1.2577  -0.9569  -0.7208  -0.6202
    -0.4647   0.8108   0.8414   0.8926   0.9314   1.0521   1.1917   1.2608
     1.3380   1.3802   1.4522   1.4648   1.5655   1.5886   1.6389   1.7668
     1.8382   1.9365   1.9568   2.0607

          k = 0.4009 0.1158 0.0000 ( 71475 PWs)   bands (ev):

   -15.5615 -15.1004 -14.7384 -14.4423 -14.3952 -14.1766 -14.0235 -13.9457
   -13.9199 -13.7522 -13.5772 -13.5502 -13.5181 -13.2955 -13.2559 -13.2115
   -12.8158 -12.7749  -7.3789  -7.1037  -7.0142  -6.9165  -6.7929  -6.7629
    -6.7030  -6.6823  -6.6447  -6.4546  -6.3809  -6.2914  -6.2629  -6.0064
    -5.5543  -5.5071  -5.4256  -5.3396  -5.2239  -5.1570  -5.0960  -5.0231
    -4.9050  -4.8687  -4.8110  -4.7457  -4.6723  -4.6233  -4.5614  -4.4917
    -4.4034  -4.2410  -4.2068  -4.1320  -4.0156  -3.6732  -3.6172  -3.4751
    -3.4451  -3.3286  -3.2771  -3.2351  -3.1709  -3.0263  -2.9767  -2.9238
    -2.8337  -2.6321  -2.5246  -2.4673  -2.3629  -2.2529  -2.1418  -2.0937
    -2.0094  -1.8996  -1.7878  -1.7529  -1.2882  -0.9446  -0.7425  -0.6301
    -0.4506   0.7751   0.7946   0.9238   1.0024   1.0732   1.1797   1.2782
     1.3245   1.3800   1.4434   1.4654   1.5793   1.6033   1.6388   1.7497
     1.7979   1.9418   1.9552   2.0585

          k =-0.5011-0.2894 0.0000 ( 71476 PWs)   bands (ev):

   -15.4563 -15.2628 -14.6810 -14.4999 -14.3830 -14.2629 -13.9244 -13.9193
   -13.8775 -13.7997 -13.5671 -13.5101 -13.5091 -13.3092 -13.2530 -13.2257
   -12.8227 -12.7774  -7.4515  -7.0393  -7.0019  -6.9011  -6.8800  -6.7645
    -6.7236  -6.6333  -6.6057  -6.4877  -6.3966  -6.3265  -6.3140  -6.1778
    -5.5144  -5.4647  -5.3512  -5.2194  -5.1944  -5.1471  -5.0209  -4.9715
    -4.9577  -4.8723  -4.7710  -4.7576  -4.6671  -4.6288  -4.6066  -4.6023
    -4.4019  -4.2798  -4.1717  -3.8930  -3.8301  -3.6717  -3.6040  -3.5762
    -3.5068  -3.4589  -3.2985  -3.2228  -3.2077  -3.1569  -3.0799  -3.0495
    -2.9152  -2.5231  -2.4911  -2.3745  -2.2020  -2.1880  -2.0579  -2.0441
    -2.0271  -1.8675  -1.7745  -1.7504  -1.4487  -0.9333  -0.8175  -0.6300
    -0.4179   0.7365   0.7428   1.0516   1.1005   1.1160   1.1797   1.2331
     1.3360   1.3794   1.4216   1.4749   1.5496   1.5944   1.6371   1.7525
     1.7581   1.8184   1.8571   2.0069

          k =-0.5011-0.1736 0.0000 ( 71497 PWs)   bands (ev):

   -15.4668 -15.2343 -14.7651 -14.4069 -14.3873 -14.2479 -13.9672 -13.9394
   -13.8906 -13.7552 -13.5651 -13.5225 -13.5093 -13.3168 -13.2553 -13.2121
   -12.8257 -12.7735  -7.4324  -7.0900  -7.0327  -6.9217  -6.8146  -6.7448
    -6.7057  -6.6803  -6.5926  -6.4601  -6.4309  -6.3209  -6.3036  -6.1271
    -5.5489  -5.4436  -5.4279  -5.3266  -5.1751  -5.0709  -5.0134  -4.9840
    -4.8835  -4.8557  -4.8008  -4.7181  -4.6870  -4.6390  -4.6130  -4.5370
    -4.3706  -4.3096  -4.1640  -4.0756  -3.7754  -3.7187  -3.5921  -3.5709
    -3.4865  -3.3995  -3.3188  -3.2674  -3.2134  -3.1321  -3.0466  -2.9754
    -2.9048  -2.5585  -2.4700  -2.3822  -2.3213  -2.1893  -2.0696  -2.0352
    -1.9670  -1.8701  -1.7813  -1.7383  -1.4358  -0.9608  -0.7808  -0.6296
    -0.4247   0.7567   0.7728   1.0065   1.0687   1.1183   1.1899   1.2508
     1.3306   1.3782   1.3995   1.4723   1.5189   1.6025   1.6371   1.7285
     1.7652   1.8247   1.9187   1.9556

          k =-0.5011-0.0579 0.0000 ( 71477 PWs)   bands (ev):

   -15.4806 -15.1826 -14.8624 -14.3963 -14.2827 -14.2170 -14.0384 -13.9905
   -13.8959 -13.6970 -13.5626 -13.5489 -13.5098 -13.3258 -13.2575 -13.1948
   -12.8296 -12.7682  -7.3890  -7.1823  -7.0521  -6.9294  -6.7740  -6.7369
    -6.6908  -6.6569  -6.5895  -6.5094  -6.4275  -6.3123  -6.2973  -5.9793
    -5.6913  -5.5766  -5.3977  -5.2904  -5.1713  -5.1120  -4.9844  -4.9103
    -4.8563  -4.8235  -4.8002  -4.7431  -4.7070  -4.6202  -4.5464  -4.4979
    -4.3876  -4.3181  -4.2464  -4.1009  -3.7566  -3.7462  -3.6850  -3.5601
    -3.5014  -3.4518  -3.3506  -3.2820  -3.0953  -3.0245  -2.9756  -2.9082
    -2.8321  -2.6434  -2.6043  -2.4192  -2.3651  -2.1726  -2.0794  -2.0145
    -1.9638  -1.8491  -1.7913  -1.7239  -1.4141  -0.9907  -0.7344  -0.6287
    -0.4375   0.8239   0.8275   0.9392   0.9816   1.1091   1.2061   1.2798
     1.3276   1.3691   1.3917   1.4540   1.4915   1.5512   1.6669   1.7221
     1.7859   1.8279   1.9012   1.9981

          k =-0.5010 0.0578 0.0000 ( 71484 PWs)   bands (ev):

   -15.4807 -15.1826 -14.8624 -14.3964 -14.2825 -14.2169 -14.0387 -13.9903
   -13.8959 -13.6973 -13.5624 -13.5488 -13.5098 -13.3257 -13.2577 -13.1951
   -12.8296 -12.7682  -7.3888  -7.1824  -7.0520  -6.9294  -6.7739  -6.7371
    -6.6906  -6.6568  -6.5892  -6.5098  -6.4275  -6.3123  -6.2974  -5.9790
    -5.6915  -5.5766  -5.3980  -5.2904  -5.1712  -5.1118  -4.9847  -4.9102
    -4.8567  -4.8233  -4.8006  -4.7420  -4.7072  -4.6200  -4.5469  -4.4977
    -4.3876  -4.3181  -4.2467  -4.1011  -3.7563  -3.7462  -3.6849  -3.5600
    -3.5015  -3.4518  -3.3503  -3.2823  -3.0955  -3.0249  -2.9766  -2.9072
    -2.8320  -2.6435  -2.6038  -2.4193  -2.3652  -2.1732  -2.0792  -2.0142
    -1.9643  -1.8491  -1.7916  -1.7241  -1.4133  -0.9907  -0.7343  -0.6289
    -0.4370   0.8240   0.8281   0.9390   0.9817   1.1090   1.2060   1.2797
     1.3273   1.3692   1.3913   1.4543   1.4912   1.5514   1.6667   1.7217
     1.7855   1.8281   1.9012   1.9979

          k =-0.5010 0.1736 0.0000 ( 71503 PWs)   bands (ev):

   -15.4670 -15.2341 -14.7649 -14.4068 -14.3878 -14.2475 -13.9675 -13.9391
   -13.8907 -13.7557 -13.5645 -13.5223 -13.5091 -13.3164 -13.2559 -13.2126
   -12.8256 -12.7736  -7.4321  -7.0902  -7.0327  -6.9216  -6.8144  -6.7448
    -6.7056  -6.6801  -6.5923  -6.4600  -6.4315  -6.3211  -6.3037  -6.1267
    -5.5490  -5.4437  -5.4282  -5.3268  -5.1749  -5.0701  -5.0143  -4.9843
    -4.8824  -4.8566  -4.8006  -4.7177  -4.6872  -4.6384  -4.6131  -4.5370
    -4.3708  -4.3095  -4.1637  -4.0764  -3.7762  -3.7187  -3.5906  -3.5710
    -3.4861  -3.4002  -3.3188  -3.2676  -3.2140  -3.1317  -3.0472  -2.9753
    -2.9043  -2.5584  -2.4705  -2.3818  -2.3209  -2.1907  -2.0693  -2.0349
    -1.9679  -1.8705  -1.7819  -1.7386  -1.4335  -0.9607  -0.7805  -0.6300
    -0.4235   0.7573   0.7735   1.0066   1.0688   1.1183   1.1903   1.2500
     1.3306   1.3765   1.3997   1.4723   1.5181   1.6028   1.6365   1.7275
     1.7651   1.8250   1.9183   1.9554

          k =-0.5011-0.8680 0.0000 ( 71480 PWs)   bands (ev):

   -15.4566 -15.2626 -14.6805 -14.5000 -14.3835 -14.2624 -13.9245 -13.9192
   -13.8775 -13.8003 -13.5664 -13.5097 -13.5091 -13.3084 -13.2543 -13.2261
   -12.8227 -12.7775  -7.4512  -7.0392  -7.0024  -6.9003  -6.8803  -6.7642
    -6.7237  -6.6331  -6.6053  -6.4879  -6.3972  -6.3267  -6.3142  -6.1773
    -5.5147  -5.4647  -5.3515  -5.2193  -5.1944  -5.1473  -5.0216  -4.9703
    -4.9572  -4.8728  -4.7707  -4.7582  -4.6666  -4.6290  -4.6067  -4.6020
    -4.4018  -4.2800  -4.1710  -3.8937  -3.8304  -3.6742  -3.6026  -3.5748
    -3.5071  -3.4584  -3.2997  -3.2220  -3.2065  -3.1572  -3.0813  -3.0497
    -2.9144  -2.5228  -2.4919  -2.3747  -2.2033  -2.1861  -2.0582  -2.0449
    -2.0276  -1.8683  -1.7755  -1.7505  -1.4458  -0.9333  -0.8171  -0.6305
    -0.4164   0.7368   0.7439   1.0519   1.1001   1.1163   1.1809   1.2321
     1.3365   1.3769   1.4220   1.4741   1.5490   1.5934   1.6376   1.7514
     1.7588   1.8176   1.8574   2.0062

     highest occupied, lowest unoccupied level (ev):    -0.8587   -0.8179

!    total energy              =    -501.08964833 Ry
     Harris-Foulkes estimate   =    -501.08965976 Ry
     estimated scf accuracy    <       0.00001585 Ry

     The total energy is the sum of the following terms:

     one-electron contribution =   -3423.03067568 Ry
     hartree contribution      =    1748.68474186 Ry
     xc contribution           =    -114.28560275 Ry
     ewald contribution        =    1287.88336960 Ry
     Dispersion Correction     =      -0.34148135 Ry

     convergence has been achieved in  12 iterations

     Forces acting on atoms (cartesian axes, Ry/au):

     atom    1 type  1   force =     0.00074816    0.00001474   -0.00008967
     atom    2 type  2   force =    -0.00007881    0.00017392   -0.00002781
     atom    3 type  2   force =     0.00015262   -0.00014502    0.00006016
     atom    4 type  1   force =     0.00029509    0.00072847   -0.00030383
     atom    5 type  2   force =     0.00004850   -0.00007856    0.00039009
     atom    6 type  2   force =    -0.00010237   -0.00006542   -0.00040046
     atom    7 type  1   force =    -0.00003858   -0.00002103   -0.00015429
     atom    8 type  2   force =    -0.00010202    0.00000294    0.00051810
     atom    9 type  2   force =    -0.00011050    0.00011826   -0.00038979
     atom   10 type  1   force =    -0.00070605   -0.00004011   -0.00012536
     atom   11 type  2   force =     0.00027307    0.00020742    0.00019515
     atom   12 type  2   force =    -0.00016652    0.00026849    0.00004007
     atom   13 type  2   force =    -0.00004074   -0.00039402    0.00022373
     atom   14 type  2   force =     0.00030839    0.00021429    0.00000706
     atom   15 type  1   force =    -0.00042572   -0.00063216    0.00010096
     atom   16 type  2   force =    -0.00000095    0.00010998    0.00050886
     atom   17 type  2   force =     0.00009098    0.00005418   -0.00039012
     atom   18 type  1   force =     0.00003872    0.00001852    0.00003567
     atom   19 type  2   force =    -0.00007125   -0.00016142    0.00001885
     atom   20 type  2   force =     0.00010353    0.00012596    0.00005842
     atom   21 type  1   force =    -0.00028717    0.00065191   -0.00016246
     atom   22 type  2   force =    -0.00030651   -0.00000441    0.00009030
     atom   23 type  2   force =    -0.00000340   -0.00033813   -0.00009430
     atom   24 type  1   force =     0.00037210   -0.00065584   -0.00030585
     atom   25 type  2   force =     0.00016527   -0.00008702    0.00006456
     atom   26 type  2   force =    -0.00015583   -0.00006596    0.00013197

     Total force =     0.002429     Total SCF correction =     0.009292
     SCF correction compared to forces is large: reduce conv_thr to get better values


     Computing stress (Cartesian axis) and pressure

          total   stress  (Ry/bohr**3)                   (kbar)     P=       -0.03
   0.00000200  -0.00000007  -0.00000008            0.29       -0.01       -0.01
  -0.00000007   0.00000177  -0.00000013           -0.01        0.26       -0.02
  -0.00000008  -0.00000013  -0.00000431           -0.01       -0.02       -0.63


     Writing output data file ./out/3x3_MoS2_mo.save/

     init_run     :    831.82s CPU    844.34s WALL (       1 calls)
     electrons    :   3579.77s CPU   3648.26s WALL (       1 calls)
     forces       :    141.59s CPU    142.30s WALL (       1 calls)
     stress       :    181.88s CPU    182.82s WALL (       1 calls)

     Called by init_run:
     wfcinit      :    828.20s CPU    840.63s WALL (       1 calls)
     potinit      :      1.18s CPU      1.20s WALL (       1 calls)
     hinit0       :      0.67s CPU      0.70s WALL (       1 calls)

     Called by electrons:
     c_bands      :   3452.72s CPU   3510.26s WALL (      12 calls)
     sum_band     :    124.41s CPU    135.08s WALL (      12 calls)
     v_of_rho     :      0.93s CPU      0.98s WALL (      13 calls)
     mix_rho      :      0.95s CPU      1.04s WALL (      12 calls)

     Called by c_bands:
     init_us_2    :     17.97s CPU     18.18s WALL (    1404 calls)
     cegterg      :   3380.17s CPU   3436.54s WALL (     624 calls)

     Called by sum_band:

     Called by *egterg:
     h_psi        :   2645.94s CPU   2705.40s WALL (    2228 calls)
     g_psi        :      1.67s CPU      1.69s WALL (    1552 calls)
     cdiaghg      :     85.72s CPU     85.87s WALL (    2176 calls)

     Called by h_psi:
     h_psi:calbec :   1058.63s CPU   1063.89s WALL (    2228 calls)
     vloc_psi     :    581.18s CPU    629.66s WALL (    2228 calls)
     add_vuspsi   :   1000.13s CPU   1004.73s WALL (    2228 calls)

     General routines
     calbec       :   1211.01s CPU   1216.88s WALL (    2488 calls)
     fft          :      1.74s CPU      1.91s WALL (      67 calls)
     ffts         :      0.10s CPU      0.11s WALL (      25 calls)
     fftw         :    641.32s CPU    695.32s WALL (  391292 calls)
     interpolate  :      0.46s CPU      0.53s WALL (      13 calls)

     Parallel routines
     fft_scatt_xy :     58.76s CPU     63.42s WALL (  391384 calls)
     fft_scatt_yz :    163.31s CPU    179.66s WALL (  391384 calls)

     PWSCF        :      1h18m CPU      1h20m WALL


   This run was terminated on:  21:53:40  27May2022            

=------------------------------------------------------------------------------=
   JOB DONE.
=------------------------------------------------------------------------------=
