
     Program PWSCF v.6.5Max starts on  3Jun2022 at 12:19:25 

     This program is part of the open-source Quantum ESPRESSO suite
     for quantum simulation of materials; please cite
         "P. Giannozzi et al., J. Phys.:Condens. Matter 21 395502 (2009);
         "P. Giannozzi et al., J. Phys.:Condens. Matter 29 465901 (2017);
          URL http://www.quantum-espresso.org", 
     in publications or presentations arising from this work. More details at
     http://www.quantum-espresso.org/quote

     Parallel version (MPI), running on    16 processors

     MPI processes distributed on     1 nodes
     R & G space division:  proc/nbgrp/npool/nimage =      16
     Waiting for input...
     Reading input from standard input
Warning: card  &CELL ignored
Warning: card CELL_DYNAMICS='BFGS' ignored
Warning: card CELL_FACTOR=2.5 ignored
Warning: card CELL_DOFREE='2DXY' ignored
Warning: card / ignored

     Current dimensions of program PWSCF are:
     Max number of different atomic species (ntypx) = 10
     Max number of k-points (npk) =  40000
     Max angular momentum in pseudopotentials (lmaxx) =  3

     Atomic positions and unit cell read from directory:
     ./out/3x3_MoS2_mo.save/                                                                                                                                                                                                                                         

               file Mo.pw-mt_fhi.UPF: wavefunction(s)  4f renormalized
               file S.pw-mt_fhi.UPF: wavefunction(s)  4f renormalized

     -------------------------------------------------
     Parameters for Dispersion (Grimme-D2) Correction:
     -------------------------------------------------
       atom      VdW radius       C_6     

        Mo         3.097        855.833
        S          3.180        193.230

     Subspace diagonalization in iterative solution of the eigenvalue problem:
     a serial algorithm will be used

     Message from routine setup:
     no reason to have ecutrho>4*ecutwfc

     Parallelization info
     --------------------
     sticks:   dense  smooth     PW     G-vecs:    dense   smooth      PW
     Min         795     318     87               141338    35744    5121
     Max         797     319     88               141341    35751    5128
     Sum       12727    5089   1393              2261433   571933   81977



     bravais-lattice index     =            0
     lattice parameter (alat)  =      17.5735  a.u.
     unit-cell volume          =    9111.0240 (a.u.)^3
     number of atoms/cell      =           26
     number of atomic types    =            2
     number of electrons       =       156.00
     number of Kohn-Sham states=          100
     kinetic-energy cutoff     =      60.0000  Ry
     charge density cutoff     =     600.0000  Ry
     Exchange-correlation= SLA-PW
                           (   1   4   0   0   0   0   0)

     celldm(1)=  17.573519  celldm(2)=   0.000000  celldm(3)=   0.000000
     celldm(4)=   0.000000  celldm(5)=   0.000000  celldm(6)=   0.000000

     crystal axes: (cart. coord. in units of alat)
               a(1) = (   0.997901  -0.000076   0.000000 )  
               a(2) = (  -0.499016   0.864143   0.000000 )  
               a(3) = (   0.000000   0.000000   1.946870 )  

     reciprocal axes: (cart. coord. in units 2 pi/alat)
               b(1) = (  1.002148  0.578710 -0.000000 )  
               b(2) = (  0.000088  1.157267 -0.000000 )  
               b(3) = ( -0.000000 -0.000000  0.513645 )  


     PseudoPot. # 1 for Mo read from file:
     ./Mo.pw-mt_fhi.UPF
     MD5 check sum: 39557091c5c29ab518dcc42d2770f0a9
     Pseudo is Norm-conserving, Zval =  6.0
     Generated using FHI98PP, converted with fhi2upf.x v.5.0.1
     Using radial grid of  541 points,  3 beta functions with: 
                l(1) =   0
                l(2) =   2
                l(3) =   3

     PseudoPot. # 2 for S  read from file:
     ./S.pw-mt_fhi.UPF
     MD5 check sum: 498597b413bac406373b42162ed9f1a5
     Pseudo is Norm-conserving, Zval =  6.0
     Generated using FHI98PP, converted with fhi2upf.x v.5.0.1
     Using radial grid of  501 points,  3 beta functions with: 
                l(1) =   0
                l(2) =   1
                l(3) =   3

     atomic species   valence    mass     pseudopotential
        Mo             6.00    95.95000     Mo( 1.00)
        S              6.00    32.06500     S ( 1.00)

     No symmetry found


                                    s                        frac. trans.

      isym =  1     identity                                     

 cryst.   s( 1) = (     1          0          0      )
                  (     0          1          0      )
                  (     0          0          1      )

 cart.    s( 1) = (  1.0000000  0.0000000  0.0000000 )
                  (  0.0000000  1.0000000  0.0000000 )
                  (  0.0000000  0.0000000  1.0000000 )


   Cartesian axes

     site n.     atom                  positions (alat units)
         1           Mo  tau(   1) = (   0.1690316   0.0956945   1.2044210  )
         2           S   tau(   2) = (   0.0004165   0.1937362   1.3658801  )
         3           S   tau(   3) = (   0.0025124   0.1902760   1.0342524  )
         4           Mo  tau(   4) = (   0.0017081   0.3852503   1.1957635  )
         5           S   tau(   5) = (  -0.1619619   0.4796776   1.3657781  )
         6           S   tau(   6) = (  -0.1709244   0.4796409   1.0342775  )
         7           Mo  tau(   7) = (  -0.1664310   0.6711912   1.1999992  )
         8           S   tau(   8) = (  -0.3346269   0.7629910   1.3656937  )
         9           S   tau(   9) = (  -0.3300162   0.7709456   1.0342863  )
        10           Mo  tau(  10) = (   0.4961693   0.0956403   1.1956339  )
        11           S   tau(  11) = (   0.3279846   0.1917834   1.3643265  )
        12           S   tau(  12) = (   0.3371729   0.1921740   1.0360409  )
        13           S   tau(  13) = (   0.1690522   0.4828090   1.3642049  )
        14           S   tau(  14) = (   0.1644521   0.4748287   1.0357841  )
        15           Mo  tau(  15) = (   0.1652549   0.6685189   1.2042180  )
        16           S   tau(  16) = (  -0.0027906   0.7708785   1.3656992  )
        17           S   tau(  17) = (   0.0016511   0.7630550   1.0342185  )
        18           Mo  tau(  18) = (   0.8315306   0.0950180   1.1999887  )
        19           S   tau(  19) = (   0.6626515   0.1901398   1.3658037  )
        20           S   tau(  20) = (   0.6647289   0.1937136   1.0341563  )
        21           Mo  tau(  21) = (   0.6633447   0.3851424   1.2043119  )
        22           S   tau(  22) = (   0.5001875   0.4745429   1.3638712  )
        23           S   tau(  23) = (   0.4960824   0.4827703   1.0355701  )
        24           Mo  tau(  24) = (   0.4997247   0.6684173   1.1955655  )
        25           S   tau(  25) = (   0.3345334   0.7653183   1.3657201  )
        26           S   tau(  26) = (   0.3304841   0.7654013   1.0341045  )

   Crystallographic axes

     site n.     atom                  positions (cryst. coord.)
         1           Mo  tau(   1) = (  0.2247740  0.1107590  0.6186448  )
         2           S   tau(   2) = (  0.1125345  0.2242045  0.7015774  )
         3           S   tau(   3) = (  0.1126324  0.2202003  0.5312385  )
         4           Mo  tau(   4) = (  0.2246599  0.4458375  0.6141979  )
         5           S   tau(   5) = (  0.1152844  0.5551005  0.7015250  )
         6           S   tau(   6) = (  0.1062814  0.5550572  0.5312514  )
         7           Mo  tau(   7) = (  0.2216365  0.7767325  0.6163735  )
         8           S   tau(   8) = (  0.1062048  0.8829544  0.7014817  )
         9           S   tau(   9) = (  0.1154289  0.8921604  0.5312559  )
        10           Mo  tau(  10) = (  0.5525829  0.1107251  0.6141313  )
        11           S   tau(  11) = (  0.4396760  0.2219735  0.7007794  )
        12           S   tau(  12) = (  0.4491101  0.2224264  0.5321572  )
        13           S   tau(  13) = (  0.4488216  0.5587536  0.7007170  )
        14           S   tau(  14) = (  0.4395933  0.5495180  0.5320253  )
        15           Mo  tau(  15) = (  0.5524883  0.7736692  0.6185405  )
        16           S   tau(  16) = (  0.4433184  0.8921117  0.7014845  )
        17           S   tau(  17) = (  0.4432421  0.8830582  0.5312211  )
        18           Mo  tau(  18) = (  0.8883043  0.1100347  0.6163681  )
        19           S   tau(  19) = (  0.7741105  0.2201010  0.7015382  )
        20           S   tau(  20) = (  0.7782604  0.2242370  0.5311891  )
        21           Mo  tau(  21) = (  0.8876550  0.4457711  0.6185887  )
        22           S   tau(  22) = (  0.7758844  0.5492168  0.7005455  )
        23           S   tau(  23) = (  0.7765318  0.5587378  0.5319154  )
        24           Mo  tau(  24) = (  0.8876177  0.7735812  0.6140962  )
        25           S   tau(  25) = (  0.7781491  0.8857068  0.7014952  )
        26           S   tau(  26) = (  0.7741392  0.8858025  0.5311625  )

     number of k points=   452
                       cart. coord. in units 2pi/alat
        k(    1) = (   0.0000000   0.0000000   0.0000000), wk =   0.0022222
        k(    2) = (   0.0000029   0.0385756   0.0000000), wk =   0.0044444
        k(    3) = (   0.0000059   0.0771511   0.0000000), wk =   0.0044444
        k(    4) = (   0.0000088   0.1157267   0.0000000), wk =   0.0044444
        k(    5) = (   0.0000118   0.1543022   0.0000000), wk =   0.0044444
        k(    6) = (   0.0000147   0.1928778   0.0000000), wk =   0.0044444
        k(    7) = (   0.0000177   0.2314533   0.0000000), wk =   0.0044444
        k(    8) = (   0.0000206   0.2700289   0.0000000), wk =   0.0044444
        k(    9) = (   0.0000236   0.3086044   0.0000000), wk =   0.0044444
        k(   10) = (   0.0000265   0.3471800   0.0000000), wk =   0.0044444
        k(   11) = (   0.0000295   0.3857555   0.0000000), wk =   0.0044444
        k(   12) = (   0.0000324   0.4243311   0.0000000), wk =   0.0044444
        k(   13) = (   0.0000354   0.4629066   0.0000000), wk =   0.0044444
        k(   14) = (   0.0000383   0.5014822   0.0000000), wk =   0.0044444
        k(   15) = (   0.0000413   0.5400577   0.0000000), wk =   0.0044444
        k(   16) = (  -0.0000442  -0.5786333   0.0000000), wk =   0.0022222
        k(   17) = (   0.0334049   0.0192903   0.0000000), wk =   0.0044444
        k(   18) = (   0.0334079   0.0578659   0.0000000), wk =   0.0044444
        k(   19) = (   0.0334108   0.0964414   0.0000000), wk =   0.0044444
        k(   20) = (   0.0334138   0.1350170   0.0000000), wk =   0.0044444
        k(   21) = (   0.0334167   0.1735925   0.0000000), wk =   0.0044444
        k(   22) = (   0.0334197   0.2121681   0.0000000), wk =   0.0044444
        k(   23) = (   0.0334226   0.2507436   0.0000000), wk =   0.0044444
        k(   24) = (   0.0334256   0.2893192   0.0000000), wk =   0.0044444
        k(   25) = (   0.0334285   0.3278948   0.0000000), wk =   0.0044444
        k(   26) = (   0.0334314   0.3664703   0.0000000), wk =   0.0044444
        k(   27) = (   0.0334344   0.4050459   0.0000000), wk =   0.0044444
        k(   28) = (   0.0334373   0.4436214   0.0000000), wk =   0.0044444
        k(   29) = (   0.0334403   0.4821970   0.0000000), wk =   0.0044444
        k(   30) = (   0.0334432   0.5207725   0.0000000), wk =   0.0044444
        k(   31) = (   0.0334462   0.5593481   0.0000000), wk =   0.0044444
        k(   32) = (   0.0333607  -0.5593430   0.0000000), wk =   0.0044444
        k(   33) = (   0.0333637  -0.5207674   0.0000000), wk =   0.0044444
        k(   34) = (   0.0333666  -0.4821919   0.0000000), wk =   0.0044444
        k(   35) = (   0.0333696  -0.4436163   0.0000000), wk =   0.0044444
        k(   36) = (   0.0333725  -0.4050408   0.0000000), wk =   0.0044444
        k(   37) = (   0.0333755  -0.3664652   0.0000000), wk =   0.0044444
        k(   38) = (   0.0333784  -0.3278897   0.0000000), wk =   0.0044444
        k(   39) = (   0.0333813  -0.2893141   0.0000000), wk =   0.0044444
        k(   40) = (   0.0333843  -0.2507385   0.0000000), wk =   0.0044444
        k(   41) = (   0.0333872  -0.2121630   0.0000000), wk =   0.0044444
        k(   42) = (   0.0333902  -0.1735874   0.0000000), wk =   0.0044444
        k(   43) = (   0.0333931  -0.1350119   0.0000000), wk =   0.0044444
        k(   44) = (   0.0333961  -0.0964363   0.0000000), wk =   0.0044444
        k(   45) = (   0.0333990  -0.0578608   0.0000000), wk =   0.0044444
        k(   46) = (   0.0334020  -0.0192852   0.0000000), wk =   0.0044444
        k(   47) = (   0.0668098   0.0385807   0.0000000), wk =   0.0044444
        k(   48) = (   0.0668128   0.0771562   0.0000000), wk =   0.0044444
        k(   49) = (   0.0668157   0.1157318   0.0000000), wk =   0.0044444
        k(   50) = (   0.0668187   0.1543073   0.0000000), wk =   0.0044444
        k(   51) = (   0.0668216   0.1928829   0.0000000), wk =   0.0044444
        k(   52) = (   0.0668246   0.2314584   0.0000000), wk =   0.0044444
        k(   53) = (   0.0668275   0.2700340   0.0000000), wk =   0.0044444
        k(   54) = (   0.0668305   0.3086095   0.0000000), wk =   0.0044444
        k(   55) = (   0.0668334   0.3471851   0.0000000), wk =   0.0044444
        k(   56) = (   0.0668364   0.3857606   0.0000000), wk =   0.0044444
        k(   57) = (   0.0668393   0.4243362   0.0000000), wk =   0.0044444
        k(   58) = (   0.0668423   0.4629117   0.0000000), wk =   0.0044444
        k(   59) = (   0.0668452   0.5014873   0.0000000), wk =   0.0044444
        k(   60) = (   0.0668482   0.5400629   0.0000000), wk =   0.0044444
        k(   61) = (   0.0668511   0.5786384   0.0000000), wk =   0.0044444
        k(   62) = (   0.0667656  -0.5400526   0.0000000), wk =   0.0044444
        k(   63) = (   0.0667686  -0.5014771   0.0000000), wk =   0.0044444
        k(   64) = (   0.0667715  -0.4629015   0.0000000), wk =   0.0044444
        k(   65) = (   0.0667745  -0.4243260   0.0000000), wk =   0.0044444
        k(   66) = (   0.0667774  -0.3857504   0.0000000), wk =   0.0044444
        k(   67) = (   0.0667804  -0.3471749   0.0000000), wk =   0.0044444
        k(   68) = (   0.0667833  -0.3085993   0.0000000), wk =   0.0044444
        k(   69) = (   0.0667863  -0.2700238   0.0000000), wk =   0.0044444
        k(   70) = (   0.0667892  -0.2314482   0.0000000), wk =   0.0044444
        k(   71) = (   0.0667922  -0.1928727   0.0000000), wk =   0.0044444
        k(   72) = (   0.0667951  -0.1542971   0.0000000), wk =   0.0044444
        k(   73) = (   0.0667981  -0.1157216   0.0000000), wk =   0.0044444
        k(   74) = (   0.0668010  -0.0771460   0.0000000), wk =   0.0044444
        k(   75) = (   0.0668040  -0.0385704   0.0000000), wk =   0.0044444
        k(   76) = (   0.0668069   0.0000051   0.0000000), wk =   0.0044444
        k(   77) = (   0.1002148   0.0578710   0.0000000), wk =   0.0044444
        k(   78) = (   0.1002177   0.0964465   0.0000000), wk =   0.0044444
        k(   79) = (   0.1002207   0.1350221   0.0000000), wk =   0.0044444
        k(   80) = (   0.1002236   0.1735976   0.0000000), wk =   0.0044444
        k(   81) = (   0.1002266   0.2121732   0.0000000), wk =   0.0044444
        k(   82) = (   0.1002295   0.2507488   0.0000000), wk =   0.0044444
        k(   83) = (   0.1002325   0.2893243   0.0000000), wk =   0.0044444
        k(   84) = (   0.1002354   0.3278999   0.0000000), wk =   0.0044444
        k(   85) = (   0.1002383   0.3664754   0.0000000), wk =   0.0044444
        k(   86) = (   0.1002413   0.4050510   0.0000000), wk =   0.0044444
        k(   87) = (   0.1002442   0.4436265   0.0000000), wk =   0.0044444
        k(   88) = (   0.1002472   0.4822021   0.0000000), wk =   0.0044444
        k(   89) = (   0.1002501   0.5207776   0.0000000), wk =   0.0044444
        k(   90) = (   0.1002531   0.5593532   0.0000000), wk =   0.0044444
        k(   91) = (   0.1002560   0.5979287   0.0000000), wk =   0.0044444
        k(   92) = (   0.1001706  -0.5207623   0.0000000), wk =   0.0044444
        k(   93) = (   0.1001735  -0.4821868   0.0000000), wk =   0.0044444
        k(   94) = (   0.1001765  -0.4436112   0.0000000), wk =   0.0044444
        k(   95) = (   0.1001794  -0.4050357   0.0000000), wk =   0.0044444
        k(   96) = (   0.1001824  -0.3664601   0.0000000), wk =   0.0044444
        k(   97) = (   0.1001853  -0.3278845   0.0000000), wk =   0.0044444
        k(   98) = (   0.1001882  -0.2893090   0.0000000), wk =   0.0044444
        k(   99) = (   0.1001912  -0.2507334   0.0000000), wk =   0.0044444
        k(  100) = (   0.1001941  -0.2121579   0.0000000), wk =   0.0044444
        k(  101) = (   0.1001971  -0.1735823   0.0000000), wk =   0.0044444
        k(  102) = (   0.1002000  -0.1350068   0.0000000), wk =   0.0044444
        k(  103) = (   0.1002030  -0.0964312   0.0000000), wk =   0.0044444
        k(  104) = (   0.1002059  -0.0578557   0.0000000), wk =   0.0044444
        k(  105) = (   0.1002089  -0.0192801   0.0000000), wk =   0.0044444
        k(  106) = (   0.1002118   0.0192954   0.0000000), wk =   0.0044444
        k(  107) = (   0.1336197   0.0771613   0.0000000), wk =   0.0044444
        k(  108) = (   0.1336226   0.1157369   0.0000000), wk =   0.0044444
        k(  109) = (   0.1336256   0.1543124   0.0000000), wk =   0.0044444
        k(  110) = (   0.1336285   0.1928880   0.0000000), wk =   0.0044444
        k(  111) = (   0.1336315   0.2314635   0.0000000), wk =   0.0044444
        k(  112) = (   0.1336344   0.2700391   0.0000000), wk =   0.0044444
        k(  113) = (   0.1336374   0.3086146   0.0000000), wk =   0.0044444
        k(  114) = (   0.1336403   0.3471902   0.0000000), wk =   0.0044444
        k(  115) = (   0.1336433   0.3857657   0.0000000), wk =   0.0044444
        k(  116) = (   0.1336462   0.4243413   0.0000000), wk =   0.0044444
        k(  117) = (   0.1336492   0.4629168   0.0000000), wk =   0.0044444
        k(  118) = (   0.1336521   0.5014924   0.0000000), wk =   0.0044444
        k(  119) = (   0.1336551   0.5400680   0.0000000), wk =   0.0044444
        k(  120) = (   0.1336580   0.5786435   0.0000000), wk =   0.0044444
        k(  121) = (   0.1336610   0.6172191   0.0000000), wk =   0.0044444
        k(  122) = (   0.1335755  -0.5014720   0.0000000), wk =   0.0044444
        k(  123) = (   0.1335784  -0.4628964   0.0000000), wk =   0.0044444
        k(  124) = (   0.1335814  -0.4243209   0.0000000), wk =   0.0044444
        k(  125) = (   0.1335843  -0.3857453   0.0000000), wk =   0.0044444
        k(  126) = (   0.1335873  -0.3471698   0.0000000), wk =   0.0044444
        k(  127) = (   0.1335902  -0.3085942   0.0000000), wk =   0.0044444
        k(  128) = (   0.1335932  -0.2700187   0.0000000), wk =   0.0044444
        k(  129) = (   0.1335961  -0.2314431   0.0000000), wk =   0.0044444
        k(  130) = (   0.1335991  -0.1928676   0.0000000), wk =   0.0044444
        k(  131) = (   0.1336020  -0.1542920   0.0000000), wk =   0.0044444
        k(  132) = (   0.1336050  -0.1157165   0.0000000), wk =   0.0044444
        k(  133) = (   0.1336079  -0.0771409   0.0000000), wk =   0.0044444
        k(  134) = (   0.1336109  -0.0385653   0.0000000), wk =   0.0044444
        k(  135) = (   0.1336138   0.0000102   0.0000000), wk =   0.0044444
        k(  136) = (   0.1336167   0.0385858   0.0000000), wk =   0.0044444
        k(  137) = (   0.1670246   0.0964516   0.0000000), wk =   0.0044444
        k(  138) = (   0.1670276   0.1350272   0.0000000), wk =   0.0044444
        k(  139) = (   0.1670305   0.1736028   0.0000000), wk =   0.0044444
        k(  140) = (   0.1670335   0.2121783   0.0000000), wk =   0.0044444
        k(  141) = (   0.1670364   0.2507539   0.0000000), wk =   0.0044444
        k(  142) = (   0.1670394   0.2893294   0.0000000), wk =   0.0044444
        k(  143) = (   0.1670423   0.3279050   0.0000000), wk =   0.0044444
        k(  144) = (   0.1670452   0.3664805   0.0000000), wk =   0.0044444
        k(  145) = (   0.1670482   0.4050561   0.0000000), wk =   0.0044444
        k(  146) = (   0.1670511   0.4436316   0.0000000), wk =   0.0044444
        k(  147) = (   0.1670541   0.4822072   0.0000000), wk =   0.0044444
        k(  148) = (   0.1670570   0.5207827   0.0000000), wk =   0.0044444
        k(  149) = (   0.1670600   0.5593583   0.0000000), wk =   0.0044444
        k(  150) = (   0.1670629   0.5979338   0.0000000), wk =   0.0044444
        k(  151) = (   0.1670659   0.6365094   0.0000000), wk =   0.0044444
        k(  152) = (   0.1669804  -0.4821817   0.0000000), wk =   0.0044444
        k(  153) = (   0.1669834  -0.4436061   0.0000000), wk =   0.0044444
        k(  154) = (   0.1669863  -0.4050305   0.0000000), wk =   0.0044444
        k(  155) = (   0.1669893  -0.3664550   0.0000000), wk =   0.0044444
        k(  156) = (   0.1669922  -0.3278794   0.0000000), wk =   0.0044444
        k(  157) = (   0.1669951  -0.2893039   0.0000000), wk =   0.0044444
        k(  158) = (   0.1669981  -0.2507283   0.0000000), wk =   0.0044444
        k(  159) = (   0.1670010  -0.2121528   0.0000000), wk =   0.0044444
        k(  160) = (   0.1670040  -0.1735772   0.0000000), wk =   0.0044444
        k(  161) = (   0.1670069  -0.1350017   0.0000000), wk =   0.0044444
        k(  162) = (   0.1670099  -0.0964261   0.0000000), wk =   0.0044444
        k(  163) = (   0.1670128  -0.0578506   0.0000000), wk =   0.0044444
        k(  164) = (   0.1670158  -0.0192750   0.0000000), wk =   0.0044444
        k(  165) = (   0.1670187   0.0193005   0.0000000), wk =   0.0044444
        k(  166) = (   0.1670217   0.0578761   0.0000000), wk =   0.0044444
        k(  167) = (   0.2004295   0.1157420   0.0000000), wk =   0.0044444
        k(  168) = (   0.2004325   0.1543175   0.0000000), wk =   0.0044444
        k(  169) = (   0.2004354   0.1928931   0.0000000), wk =   0.0044444
        k(  170) = (   0.2004384   0.2314686   0.0000000), wk =   0.0044444
        k(  171) = (   0.2004413   0.2700442   0.0000000), wk =   0.0044444
        k(  172) = (   0.2004443   0.3086197   0.0000000), wk =   0.0044444
        k(  173) = (   0.2004472   0.3471953   0.0000000), wk =   0.0044444
        k(  174) = (   0.2004502   0.3857708   0.0000000), wk =   0.0044444
        k(  175) = (   0.2004531   0.4243464   0.0000000), wk =   0.0044444
        k(  176) = (   0.2004561   0.4629220   0.0000000), wk =   0.0044444
        k(  177) = (   0.2004590   0.5014975   0.0000000), wk =   0.0044444
        k(  178) = (   0.2004620   0.5400731   0.0000000), wk =   0.0044444
        k(  179) = (   0.2004649   0.5786486   0.0000000), wk =   0.0044444
        k(  180) = (   0.2004678   0.6172242   0.0000000), wk =   0.0044444
        k(  181) = (   0.2004708   0.6557997   0.0000000), wk =   0.0044444
        k(  182) = (   0.2003853  -0.4628913   0.0000000), wk =   0.0044444
        k(  183) = (   0.2003883  -0.4243158   0.0000000), wk =   0.0044444
        k(  184) = (   0.2003912  -0.3857402   0.0000000), wk =   0.0044444
        k(  185) = (   0.2003942  -0.3471647   0.0000000), wk =   0.0044444
        k(  186) = (   0.2003971  -0.3085891   0.0000000), wk =   0.0044444
        k(  187) = (   0.2004001  -0.2700136   0.0000000), wk =   0.0044444
        k(  188) = (   0.2004030  -0.2314380   0.0000000), wk =   0.0044444
        k(  189) = (   0.2004060  -0.1928625   0.0000000), wk =   0.0044444
        k(  190) = (   0.2004089  -0.1542869   0.0000000), wk =   0.0044444
        k(  191) = (   0.2004119  -0.1157113   0.0000000), wk =   0.0044444
        k(  192) = (   0.2004148  -0.0771358   0.0000000), wk =   0.0044444
        k(  193) = (   0.2004178  -0.0385602   0.0000000), wk =   0.0044444
        k(  194) = (   0.2004207   0.0000153   0.0000000), wk =   0.0044444
        k(  195) = (   0.2004236   0.0385909   0.0000000), wk =   0.0044444
        k(  196) = (   0.2004266   0.0771664   0.0000000), wk =   0.0044444
        k(  197) = (   0.2338345   0.1350323   0.0000000), wk =   0.0044444
        k(  198) = (   0.2338374   0.1736079   0.0000000), wk =   0.0044444
        k(  199) = (   0.2338404   0.2121834   0.0000000), wk =   0.0044444
        k(  200) = (   0.2338433   0.2507590   0.0000000), wk =   0.0044444
        k(  201) = (   0.2338463   0.2893345   0.0000000), wk =   0.0044444
        k(  202) = (   0.2338492   0.3279101   0.0000000), wk =   0.0044444
        k(  203) = (   0.2338521   0.3664856   0.0000000), wk =   0.0044444
        k(  204) = (   0.2338551   0.4050612   0.0000000), wk =   0.0044444
        k(  205) = (   0.2338580   0.4436367   0.0000000), wk =   0.0044444
        k(  206) = (   0.2338610   0.4822123   0.0000000), wk =   0.0044444
        k(  207) = (   0.2338639   0.5207878   0.0000000), wk =   0.0044444
        k(  208) = (   0.2338669   0.5593634   0.0000000), wk =   0.0044444
        k(  209) = (   0.2338698   0.5979389   0.0000000), wk =   0.0044444
        k(  210) = (   0.2338728   0.6365145   0.0000000), wk =   0.0044444
        k(  211) = (   0.2338757   0.6750900   0.0000000), wk =   0.0044444
        k(  212) = (   0.2337903  -0.4436010   0.0000000), wk =   0.0044444
        k(  213) = (   0.2337932  -0.4050254   0.0000000), wk =   0.0044444
        k(  214) = (   0.2337962  -0.3664499   0.0000000), wk =   0.0044444
        k(  215) = (   0.2337991  -0.3278743   0.0000000), wk =   0.0044444
        k(  216) = (   0.2338020  -0.2892988   0.0000000), wk =   0.0044444
        k(  217) = (   0.2338050  -0.2507232   0.0000000), wk =   0.0044444
        k(  218) = (   0.2338079  -0.2121477   0.0000000), wk =   0.0044444
        k(  219) = (   0.2338109  -0.1735721   0.0000000), wk =   0.0044444
        k(  220) = (   0.2338138  -0.1349966   0.0000000), wk =   0.0044444
        k(  221) = (   0.2338168  -0.0964210   0.0000000), wk =   0.0044444
        k(  222) = (   0.2338197  -0.0578455   0.0000000), wk =   0.0044444
        k(  223) = (   0.2338227  -0.0192699   0.0000000), wk =   0.0044444
        k(  224) = (   0.2338256   0.0193056   0.0000000), wk =   0.0044444
        k(  225) = (   0.2338286   0.0578812   0.0000000), wk =   0.0044444
        k(  226) = (   0.2338315   0.0964567   0.0000000), wk =   0.0044444
        k(  227) = (   0.2672394   0.1543226   0.0000000), wk =   0.0044444
        k(  228) = (   0.2672423   0.1928982   0.0000000), wk =   0.0044444
        k(  229) = (   0.2672453   0.2314737   0.0000000), wk =   0.0044444
        k(  230) = (   0.2672482   0.2700493   0.0000000), wk =   0.0044444
        k(  231) = (   0.2672512   0.3086248   0.0000000), wk =   0.0044444
        k(  232) = (   0.2672541   0.3472004   0.0000000), wk =   0.0044444
        k(  233) = (   0.2672571   0.3857760   0.0000000), wk =   0.0044444
        k(  234) = (   0.2672600   0.4243515   0.0000000), wk =   0.0044444
        k(  235) = (   0.2672630   0.4629271   0.0000000), wk =   0.0044444
        k(  236) = (   0.2672659   0.5015026   0.0000000), wk =   0.0044444
        k(  237) = (   0.2672689   0.5400782   0.0000000), wk =   0.0044444
        k(  238) = (   0.2672718   0.5786537   0.0000000), wk =   0.0044444
        k(  239) = (   0.2672747   0.6172293   0.0000000), wk =   0.0044444
        k(  240) = (   0.2672777   0.6558048   0.0000000), wk =   0.0044444
        k(  241) = (   0.2672806   0.6943804   0.0000000), wk =   0.0044444
        k(  242) = (   0.2671952  -0.4243107   0.0000000), wk =   0.0044444
        k(  243) = (   0.2671981  -0.3857351   0.0000000), wk =   0.0044444
        k(  244) = (   0.2672011  -0.3471596   0.0000000), wk =   0.0044444
        k(  245) = (   0.2672040  -0.3085840   0.0000000), wk =   0.0044444
        k(  246) = (   0.2672070  -0.2700085   0.0000000), wk =   0.0044444
        k(  247) = (   0.2672099  -0.2314329   0.0000000), wk =   0.0044444
        k(  248) = (   0.2672129  -0.1928573   0.0000000), wk =   0.0044444
        k(  249) = (   0.2672158  -0.1542818   0.0000000), wk =   0.0044444
        k(  250) = (   0.2672188  -0.1157062   0.0000000), wk =   0.0044444
        k(  251) = (   0.2672217  -0.0771307   0.0000000), wk =   0.0044444
        k(  252) = (   0.2672247  -0.0385551   0.0000000), wk =   0.0044444
        k(  253) = (   0.2672276   0.0000204   0.0000000), wk =   0.0044444
        k(  254) = (   0.2672305   0.0385960   0.0000000), wk =   0.0044444
        k(  255) = (   0.2672335   0.0771715   0.0000000), wk =   0.0044444
        k(  256) = (   0.2672364   0.1157471   0.0000000), wk =   0.0044444
        k(  257) = (   0.3006443   0.1736130   0.0000000), wk =   0.0044444
        k(  258) = (   0.3006473   0.2121885   0.0000000), wk =   0.0044444
        k(  259) = (   0.3006502   0.2507641   0.0000000), wk =   0.0044444
        k(  260) = (   0.3006531   0.2893396   0.0000000), wk =   0.0044444
        k(  261) = (   0.3006561   0.3279152   0.0000000), wk =   0.0044444
        k(  262) = (   0.3006590   0.3664907   0.0000000), wk =   0.0044444
        k(  263) = (   0.3006620   0.4050663   0.0000000), wk =   0.0044444
        k(  264) = (   0.3006649   0.4436418   0.0000000), wk =   0.0044444
        k(  265) = (   0.3006679   0.4822174   0.0000000), wk =   0.0044444
        k(  266) = (   0.3006708   0.5207929   0.0000000), wk =   0.0044444
        k(  267) = (   0.3006738   0.5593685   0.0000000), wk =   0.0044444
        k(  268) = (   0.3006767   0.5979440   0.0000000), wk =   0.0044444
        k(  269) = (   0.3006797   0.6365196   0.0000000), wk =   0.0044444
        k(  270) = (   0.3006826   0.6750952   0.0000000), wk =   0.0044444
        k(  271) = (   0.3006856   0.7136707   0.0000000), wk =   0.0044444
        k(  272) = (   0.3006001  -0.4050203   0.0000000), wk =   0.0044444
        k(  273) = (   0.3006031  -0.3664448   0.0000000), wk =   0.0044444
        k(  274) = (   0.3006060  -0.3278692   0.0000000), wk =   0.0044444
        k(  275) = (   0.3006089  -0.2892937   0.0000000), wk =   0.0044444
        k(  276) = (   0.3006119  -0.2507181   0.0000000), wk =   0.0044444
        k(  277) = (   0.3006148  -0.2121426   0.0000000), wk =   0.0044444
        k(  278) = (   0.3006178  -0.1735670   0.0000000), wk =   0.0044444
        k(  279) = (   0.3006207  -0.1349915   0.0000000), wk =   0.0044444
        k(  280) = (   0.3006237  -0.0964159   0.0000000), wk =   0.0044444
        k(  281) = (   0.3006266  -0.0578404   0.0000000), wk =   0.0044444
        k(  282) = (   0.3006296  -0.0192648   0.0000000), wk =   0.0044444
        k(  283) = (   0.3006325   0.0193107   0.0000000), wk =   0.0044444
        k(  284) = (   0.3006355   0.0578863   0.0000000), wk =   0.0044444
        k(  285) = (   0.3006384   0.0964619   0.0000000), wk =   0.0044444
        k(  286) = (   0.3006414   0.1350374   0.0000000), wk =   0.0044444
        k(  287) = (   0.3340492   0.1929033   0.0000000), wk =   0.0044444
        k(  288) = (   0.3340522   0.2314788   0.0000000), wk =   0.0044444
        k(  289) = (   0.3340551   0.2700544   0.0000000), wk =   0.0044444
        k(  290) = (   0.3340581   0.3086299   0.0000000), wk =   0.0044444
        k(  291) = (   0.3340610   0.3472055   0.0000000), wk =   0.0044444
        k(  292) = (   0.3340640   0.3857811   0.0000000), wk =   0.0044444
        k(  293) = (   0.3340669   0.4243566   0.0000000), wk =   0.0044444
        k(  294) = (   0.3340699   0.4629322   0.0000000), wk =   0.0044444
        k(  295) = (   0.3340728   0.5015077   0.0000000), wk =   0.0044444
        k(  296) = (   0.3340758   0.5400833   0.0000000), wk =   0.0044444
        k(  297) = (   0.3340787   0.5786588   0.0000000), wk =   0.0044444
        k(  298) = (   0.3340816   0.6172344   0.0000000), wk =   0.0044444
        k(  299) = (   0.3340846   0.6558099   0.0000000), wk =   0.0044444
        k(  300) = (   0.3340875   0.6943855   0.0000000), wk =   0.0044444
        k(  301) = (   0.3340905   0.7329610   0.0000000), wk =   0.0044444
        k(  302) = (   0.3340050  -0.3857300   0.0000000), wk =   0.0044444
        k(  303) = (   0.3340080  -0.3471545   0.0000000), wk =   0.0044444
        k(  304) = (   0.3340109  -0.3085789   0.0000000), wk =   0.0044444
        k(  305) = (   0.3340139  -0.2700033   0.0000000), wk =   0.0044444
        k(  306) = (   0.3340168  -0.2314278   0.0000000), wk =   0.0044444
        k(  307) = (   0.3340198  -0.1928522   0.0000000), wk =   0.0044444
        k(  308) = (   0.3340227  -0.1542767   0.0000000), wk =   0.0044444
        k(  309) = (   0.3340257  -0.1157011   0.0000000), wk =   0.0044444
        k(  310) = (   0.3340286  -0.0771256   0.0000000), wk =   0.0044444
        k(  311) = (   0.3340316  -0.0385500   0.0000000), wk =   0.0044444
        k(  312) = (   0.3340345   0.0000255   0.0000000), wk =   0.0044444
        k(  313) = (   0.3340374   0.0386011   0.0000000), wk =   0.0044444
        k(  314) = (   0.3340404   0.0771766   0.0000000), wk =   0.0044444
        k(  315) = (   0.3340433   0.1157522   0.0000000), wk =   0.0044444
        k(  316) = (   0.3340463   0.1543277   0.0000000), wk =   0.0044444
        k(  317) = (   0.3674542   0.2121936   0.0000000), wk =   0.0044444
        k(  318) = (   0.3674571   0.2507692   0.0000000), wk =   0.0044444
        k(  319) = (   0.3674600   0.2893447   0.0000000), wk =   0.0044444
        k(  320) = (   0.3674630   0.3279203   0.0000000), wk =   0.0044444
        k(  321) = (   0.3674659   0.3664958   0.0000000), wk =   0.0044444
        k(  322) = (   0.3674689   0.4050714   0.0000000), wk =   0.0044444
        k(  323) = (   0.3674718   0.4436469   0.0000000), wk =   0.0044444
        k(  324) = (   0.3674748   0.4822225   0.0000000), wk =   0.0044444
        k(  325) = (   0.3674777   0.5207980   0.0000000), wk =   0.0044444
        k(  326) = (   0.3674807   0.5593736   0.0000000), wk =   0.0044444
        k(  327) = (   0.3674836   0.5979492   0.0000000), wk =   0.0044444
        k(  328) = (   0.3674866   0.6365247   0.0000000), wk =   0.0044444
        k(  329) = (   0.3674895   0.6751003   0.0000000), wk =   0.0044444
        k(  330) = (   0.3674925   0.7136758   0.0000000), wk =   0.0044444
        k(  331) = (   0.3674954   0.7522514   0.0000000), wk =   0.0044444
        k(  332) = (   0.3674100  -0.3664397   0.0000000), wk =   0.0044444
        k(  333) = (   0.3674129  -0.3278641   0.0000000), wk =   0.0044444
        k(  334) = (   0.3674158  -0.2892886   0.0000000), wk =   0.0044444
        k(  335) = (   0.3674188  -0.2507130   0.0000000), wk =   0.0044444
        k(  336) = (   0.3674217  -0.2121375   0.0000000), wk =   0.0044444
        k(  337) = (   0.3674247  -0.1735619   0.0000000), wk =   0.0044444
        k(  338) = (   0.3674276  -0.1349864   0.0000000), wk =   0.0044444
        k(  339) = (   0.3674306  -0.0964108   0.0000000), wk =   0.0044444
        k(  340) = (   0.3674335  -0.0578353   0.0000000), wk =   0.0044444
        k(  341) = (   0.3674365  -0.0192597   0.0000000), wk =   0.0044444
        k(  342) = (   0.3674394   0.0193159   0.0000000), wk =   0.0044444
        k(  343) = (   0.3674424   0.0578914   0.0000000), wk =   0.0044444
        k(  344) = (   0.3674453   0.0964670   0.0000000), wk =   0.0044444
        k(  345) = (   0.3674483   0.1350425   0.0000000), wk =   0.0044444
        k(  346) = (   0.3674512   0.1736181   0.0000000), wk =   0.0044444
        k(  347) = (   0.4008591   0.2314839   0.0000000), wk =   0.0044444
        k(  348) = (   0.4008620   0.2700595   0.0000000), wk =   0.0044444
        k(  349) = (   0.4008650   0.3086351   0.0000000), wk =   0.0044444
        k(  350) = (   0.4008679   0.3472106   0.0000000), wk =   0.0044444
        k(  351) = (   0.4008709   0.3857862   0.0000000), wk =   0.0044444
        k(  352) = (   0.4008738   0.4243617   0.0000000), wk =   0.0044444
        k(  353) = (   0.4008768   0.4629373   0.0000000), wk =   0.0044444
        k(  354) = (   0.4008797   0.5015128   0.0000000), wk =   0.0044444
        k(  355) = (   0.4008827   0.5400884   0.0000000), wk =   0.0044444
        k(  356) = (   0.4008856   0.5786639   0.0000000), wk =   0.0044444
        k(  357) = (   0.4008885   0.6172395   0.0000000), wk =   0.0044444
        k(  358) = (   0.4008915   0.6558150   0.0000000), wk =   0.0044444
        k(  359) = (   0.4008944   0.6943906   0.0000000), wk =   0.0044444
        k(  360) = (   0.4008974   0.7329661   0.0000000), wk =   0.0044444
        k(  361) = (   0.4009003   0.7715417   0.0000000), wk =   0.0044444
        k(  362) = (   0.4008149  -0.3471494   0.0000000), wk =   0.0044444
        k(  363) = (   0.4008178  -0.3085738   0.0000000), wk =   0.0044444
        k(  364) = (   0.4008208  -0.2699982   0.0000000), wk =   0.0044444
        k(  365) = (   0.4008237  -0.2314227   0.0000000), wk =   0.0044444
        k(  366) = (   0.4008267  -0.1928471   0.0000000), wk =   0.0044444
        k(  367) = (   0.4008296  -0.1542716   0.0000000), wk =   0.0044444
        k(  368) = (   0.4008326  -0.1156960   0.0000000), wk =   0.0044444
        k(  369) = (   0.4008355  -0.0771205   0.0000000), wk =   0.0044444
        k(  370) = (   0.4008384  -0.0385449   0.0000000), wk =   0.0044444
        k(  371) = (   0.4008414   0.0000306   0.0000000), wk =   0.0044444
        k(  372) = (   0.4008443   0.0386062   0.0000000), wk =   0.0044444
        k(  373) = (   0.4008473   0.0771817   0.0000000), wk =   0.0044444
        k(  374) = (   0.4008502   0.1157573   0.0000000), wk =   0.0044444
        k(  375) = (   0.4008532   0.1543328   0.0000000), wk =   0.0044444
        k(  376) = (   0.4008561   0.1929084   0.0000000), wk =   0.0044444
        k(  377) = (   0.4342640   0.2507743   0.0000000), wk =   0.0044444
        k(  378) = (   0.4342669   0.2893498   0.0000000), wk =   0.0044444
        k(  379) = (   0.4342699   0.3279254   0.0000000), wk =   0.0044444
        k(  380) = (   0.4342728   0.3665009   0.0000000), wk =   0.0044444
        k(  381) = (   0.4342758   0.4050765   0.0000000), wk =   0.0044444
        k(  382) = (   0.4342787   0.4436520   0.0000000), wk =   0.0044444
        k(  383) = (   0.4342817   0.4822276   0.0000000), wk =   0.0044444
        k(  384) = (   0.4342846   0.5208032   0.0000000), wk =   0.0044444
        k(  385) = (   0.4342876   0.5593787   0.0000000), wk =   0.0044444
        k(  386) = (   0.4342905   0.5979543   0.0000000), wk =   0.0044444
        k(  387) = (   0.4342935   0.6365298   0.0000000), wk =   0.0044444
        k(  388) = (   0.4342964   0.6751054   0.0000000), wk =   0.0044444
        k(  389) = (   0.4342994   0.7136809   0.0000000), wk =   0.0044444
        k(  390) = (   0.4343023   0.7522565   0.0000000), wk =   0.0044444
        k(  391) = (   0.4343053   0.7908320   0.0000000), wk =   0.0044444
        k(  392) = (   0.4342198  -0.3278590   0.0000000), wk =   0.0044444
        k(  393) = (   0.4342227  -0.2892835   0.0000000), wk =   0.0044444
        k(  394) = (   0.4342257  -0.2507079   0.0000000), wk =   0.0044444
        k(  395) = (   0.4342286  -0.2121324   0.0000000), wk =   0.0044444
        k(  396) = (   0.4342316  -0.1735568   0.0000000), wk =   0.0044444
        k(  397) = (   0.4342345  -0.1349813   0.0000000), wk =   0.0044444
        k(  398) = (   0.4342375  -0.0964057   0.0000000), wk =   0.0044444
        k(  399) = (   0.4342404  -0.0578301   0.0000000), wk =   0.0044444
        k(  400) = (   0.4342434  -0.0192546   0.0000000), wk =   0.0044444
        k(  401) = (   0.4342463   0.0193210   0.0000000), wk =   0.0044444
        k(  402) = (   0.4342493   0.0578965   0.0000000), wk =   0.0044444
        k(  403) = (   0.4342522   0.0964721   0.0000000), wk =   0.0044444
        k(  404) = (   0.4342552   0.1350476   0.0000000), wk =   0.0044444
        k(  405) = (   0.4342581   0.1736232   0.0000000), wk =   0.0044444
        k(  406) = (   0.4342611   0.2121987   0.0000000), wk =   0.0044444
        k(  407) = (   0.4676689   0.2700646   0.0000000), wk =   0.0044444
        k(  408) = (   0.4676719   0.3086402   0.0000000), wk =   0.0044444
        k(  409) = (   0.4676748   0.3472157   0.0000000), wk =   0.0044444
        k(  410) = (   0.4676778   0.3857913   0.0000000), wk =   0.0044444
        k(  411) = (   0.4676807   0.4243668   0.0000000), wk =   0.0044444
        k(  412) = (   0.4676837   0.4629424   0.0000000), wk =   0.0044444
        k(  413) = (   0.4676866   0.5015179   0.0000000), wk =   0.0044444
        k(  414) = (   0.4676896   0.5400935   0.0000000), wk =   0.0044444
        k(  415) = (   0.4676925   0.5786690   0.0000000), wk =   0.0044444
        k(  416) = (   0.4676954   0.6172446   0.0000000), wk =   0.0044444
        k(  417) = (   0.4676984   0.6558201   0.0000000), wk =   0.0044444
        k(  418) = (   0.4677013   0.6943957   0.0000000), wk =   0.0044444
        k(  419) = (   0.4677043   0.7329712   0.0000000), wk =   0.0044444
        k(  420) = (   0.4677072   0.7715468   0.0000000), wk =   0.0044444
        k(  421) = (   0.4677102   0.8101224   0.0000000), wk =   0.0044444
        k(  422) = (   0.4676247  -0.3085687   0.0000000), wk =   0.0044444
        k(  423) = (   0.4676277  -0.2699931   0.0000000), wk =   0.0044444
        k(  424) = (   0.4676306  -0.2314176   0.0000000), wk =   0.0044444
        k(  425) = (   0.4676336  -0.1928420   0.0000000), wk =   0.0044444
        k(  426) = (   0.4676365  -0.1542665   0.0000000), wk =   0.0044444
        k(  427) = (   0.4676395  -0.1156909   0.0000000), wk =   0.0044444
        k(  428) = (   0.4676424  -0.0771154   0.0000000), wk =   0.0044444
        k(  429) = (   0.4676453  -0.0385398   0.0000000), wk =   0.0044444
        k(  430) = (   0.4676483   0.0000357   0.0000000), wk =   0.0044444
        k(  431) = (   0.4676512   0.0386113   0.0000000), wk =   0.0044444
        k(  432) = (   0.4676542   0.0771868   0.0000000), wk =   0.0044444
        k(  433) = (   0.4676571   0.1157624   0.0000000), wk =   0.0044444
        k(  434) = (   0.4676601   0.1543379   0.0000000), wk =   0.0044444
        k(  435) = (   0.4676630   0.1929135   0.0000000), wk =   0.0044444
        k(  436) = (   0.4676660   0.2314891   0.0000000), wk =   0.0044444
        k(  437) = (  -0.5010738  -0.2893549   0.0000000), wk =   0.0022222
        k(  438) = (  -0.5010709  -0.2507794   0.0000000), wk =   0.0044444
        k(  439) = (  -0.5010680  -0.2122038   0.0000000), wk =   0.0044444
        k(  440) = (  -0.5010650  -0.1736283   0.0000000), wk =   0.0044444
        k(  441) = (  -0.5010621  -0.1350527   0.0000000), wk =   0.0044444
        k(  442) = (  -0.5010591  -0.0964772   0.0000000), wk =   0.0044444
        k(  443) = (  -0.5010562  -0.0579016   0.0000000), wk =   0.0044444
        k(  444) = (  -0.5010532  -0.0193261   0.0000000), wk =   0.0044444
        k(  445) = (  -0.5010503   0.0192495   0.0000000), wk =   0.0044444
        k(  446) = (  -0.5010473   0.0578250   0.0000000), wk =   0.0044444
        k(  447) = (  -0.5010444   0.0964006   0.0000000), wk =   0.0044444
        k(  448) = (  -0.5010414   0.1349762   0.0000000), wk =   0.0044444
        k(  449) = (  -0.5010385   0.1735517   0.0000000), wk =   0.0044444
        k(  450) = (  -0.5010355   0.2121273   0.0000000), wk =   0.0044444
        k(  451) = (  -0.5010326   0.2507028   0.0000000), wk =   0.0044444
        k(  452) = (  -0.5011181  -0.8679882   0.0000000), wk =   0.0022222

                       cryst. coord.
        k(    1) = (   0.0000000   0.0000000   0.0000000), wk =   0.0022222
        k(    2) = (   0.0000000   0.0333333   0.0000000), wk =   0.0044444
        k(    3) = (   0.0000000   0.0666667   0.0000000), wk =   0.0044444
        k(    4) = (   0.0000000   0.1000000   0.0000000), wk =   0.0044444
        k(    5) = (   0.0000000   0.1333333   0.0000000), wk =   0.0044444
        k(    6) = (   0.0000000   0.1666667   0.0000000), wk =   0.0044444
        k(    7) = (   0.0000000   0.2000000   0.0000000), wk =   0.0044444
        k(    8) = (  -0.0000000   0.2333333   0.0000000), wk =   0.0044444
        k(    9) = (   0.0000000   0.2666667   0.0000000), wk =   0.0044444
        k(   10) = (   0.0000000   0.3000000   0.0000000), wk =   0.0044444
        k(   11) = (   0.0000000   0.3333333   0.0000000), wk =   0.0044444
        k(   12) = (   0.0000000   0.3666667   0.0000000), wk =   0.0044444
        k(   13) = (   0.0000000   0.4000000   0.0000000), wk =   0.0044444
        k(   14) = (   0.0000000   0.4333333   0.0000000), wk =   0.0044444
        k(   15) = (  -0.0000000   0.4666667   0.0000000), wk =   0.0044444
        k(   16) = (   0.0000000  -0.5000000   0.0000000), wk =   0.0022222
        k(   17) = (   0.0333333   0.0000000   0.0000000), wk =   0.0044444
        k(   18) = (   0.0333333   0.0333333   0.0000000), wk =   0.0044444
        k(   19) = (   0.0333333   0.0666667   0.0000000), wk =   0.0044444
        k(   20) = (   0.0333333   0.1000000   0.0000000), wk =   0.0044444
        k(   21) = (   0.0333333   0.1333333   0.0000000), wk =   0.0044444
        k(   22) = (   0.0333333   0.1666667   0.0000000), wk =   0.0044444
        k(   23) = (   0.0333333   0.2000000   0.0000000), wk =   0.0044444
        k(   24) = (   0.0333333   0.2333333   0.0000000), wk =   0.0044444
        k(   25) = (   0.0333333   0.2666667   0.0000000), wk =   0.0044444
        k(   26) = (   0.0333333   0.3000000   0.0000000), wk =   0.0044444
        k(   27) = (   0.0333333   0.3333333   0.0000000), wk =   0.0044444
        k(   28) = (   0.0333333   0.3666667   0.0000000), wk =   0.0044444
        k(   29) = (   0.0333333   0.4000000   0.0000000), wk =   0.0044444
        k(   30) = (   0.0333333   0.4333333   0.0000000), wk =   0.0044444
        k(   31) = (   0.0333333   0.4666667   0.0000000), wk =   0.0044444
        k(   32) = (   0.0333333  -0.5000000   0.0000000), wk =   0.0044444
        k(   33) = (   0.0333333  -0.4666667   0.0000000), wk =   0.0044444
        k(   34) = (   0.0333333  -0.4333333   0.0000000), wk =   0.0044444
        k(   35) = (   0.0333333  -0.4000000   0.0000000), wk =   0.0044444
        k(   36) = (   0.0333333  -0.3666667   0.0000000), wk =   0.0044444
        k(   37) = (   0.0333333  -0.3333333   0.0000000), wk =   0.0044444
        k(   38) = (   0.0333333  -0.3000000   0.0000000), wk =   0.0044444
        k(   39) = (   0.0333333  -0.2666667   0.0000000), wk =   0.0044444
        k(   40) = (   0.0333333  -0.2333333   0.0000000), wk =   0.0044444
        k(   41) = (   0.0333333  -0.2000000   0.0000000), wk =   0.0044444
        k(   42) = (   0.0333333  -0.1666667   0.0000000), wk =   0.0044444
        k(   43) = (   0.0333333  -0.1333333   0.0000000), wk =   0.0044444
        k(   44) = (   0.0333333  -0.1000000   0.0000000), wk =   0.0044444
        k(   45) = (   0.0333333  -0.0666667   0.0000000), wk =   0.0044444
        k(   46) = (   0.0333333  -0.0333333   0.0000000), wk =   0.0044444
        k(   47) = (   0.0666667   0.0000000   0.0000000), wk =   0.0044444
        k(   48) = (   0.0666667   0.0333333   0.0000000), wk =   0.0044444
        k(   49) = (   0.0666667   0.0666667   0.0000000), wk =   0.0044444
        k(   50) = (   0.0666667   0.1000000   0.0000000), wk =   0.0044444
        k(   51) = (   0.0666667   0.1333333   0.0000000), wk =   0.0044444
        k(   52) = (   0.0666667   0.1666667   0.0000000), wk =   0.0044444
        k(   53) = (   0.0666667   0.2000000   0.0000000), wk =   0.0044444
        k(   54) = (   0.0666667   0.2333333   0.0000000), wk =   0.0044444
        k(   55) = (   0.0666667   0.2666667   0.0000000), wk =   0.0044444
        k(   56) = (   0.0666667   0.3000000   0.0000000), wk =   0.0044444
        k(   57) = (   0.0666667   0.3333333   0.0000000), wk =   0.0044444
        k(   58) = (   0.0666667   0.3666667   0.0000000), wk =   0.0044444
        k(   59) = (   0.0666667   0.4000000   0.0000000), wk =   0.0044444
        k(   60) = (   0.0666667   0.4333333   0.0000000), wk =   0.0044444
        k(   61) = (   0.0666667   0.4666667   0.0000000), wk =   0.0044444
        k(   62) = (   0.0666667  -0.5000000   0.0000000), wk =   0.0044444
        k(   63) = (   0.0666667  -0.4666667   0.0000000), wk =   0.0044444
        k(   64) = (   0.0666667  -0.4333333   0.0000000), wk =   0.0044444
        k(   65) = (   0.0666667  -0.4000000   0.0000000), wk =   0.0044444
        k(   66) = (   0.0666667  -0.3666667   0.0000000), wk =   0.0044444
        k(   67) = (   0.0666667  -0.3333333   0.0000000), wk =   0.0044444
        k(   68) = (   0.0666667  -0.3000000   0.0000000), wk =   0.0044444
        k(   69) = (   0.0666667  -0.2666667   0.0000000), wk =   0.0044444
        k(   70) = (   0.0666667  -0.2333333   0.0000000), wk =   0.0044444
        k(   71) = (   0.0666667  -0.2000000   0.0000000), wk =   0.0044444
        k(   72) = (   0.0666667  -0.1666667   0.0000000), wk =   0.0044444
        k(   73) = (   0.0666667  -0.1333333   0.0000000), wk =   0.0044444
        k(   74) = (   0.0666667  -0.1000000   0.0000000), wk =   0.0044444
        k(   75) = (   0.0666667  -0.0666667   0.0000000), wk =   0.0044444
        k(   76) = (   0.0666667  -0.0333333   0.0000000), wk =   0.0044444
        k(   77) = (   0.1000000   0.0000000   0.0000000), wk =   0.0044444
        k(   78) = (   0.1000000   0.0333333   0.0000000), wk =   0.0044444
        k(   79) = (   0.1000000   0.0666667   0.0000000), wk =   0.0044444
        k(   80) = (   0.1000000   0.1000000   0.0000000), wk =   0.0044444
        k(   81) = (   0.1000000   0.1333333   0.0000000), wk =   0.0044444
        k(   82) = (   0.1000000   0.1666667   0.0000000), wk =   0.0044444
        k(   83) = (   0.1000000   0.2000000   0.0000000), wk =   0.0044444
        k(   84) = (   0.1000000   0.2333333   0.0000000), wk =   0.0044444
        k(   85) = (   0.1000000   0.2666667   0.0000000), wk =   0.0044444
        k(   86) = (   0.1000000   0.3000000   0.0000000), wk =   0.0044444
        k(   87) = (   0.1000000   0.3333333   0.0000000), wk =   0.0044444
        k(   88) = (   0.1000000   0.3666667   0.0000000), wk =   0.0044444
        k(   89) = (   0.1000000   0.4000000   0.0000000), wk =   0.0044444
        k(   90) = (   0.1000000   0.4333333   0.0000000), wk =   0.0044444
        k(   91) = (   0.1000000   0.4666667   0.0000000), wk =   0.0044444
        k(   92) = (   0.1000000  -0.5000000   0.0000000), wk =   0.0044444
        k(   93) = (   0.1000000  -0.4666667   0.0000000), wk =   0.0044444
        k(   94) = (   0.1000000  -0.4333333   0.0000000), wk =   0.0044444
        k(   95) = (   0.1000000  -0.4000000   0.0000000), wk =   0.0044444
        k(   96) = (   0.1000000  -0.3666667   0.0000000), wk =   0.0044444
        k(   97) = (   0.1000000  -0.3333333   0.0000000), wk =   0.0044444
        k(   98) = (   0.1000000  -0.3000000   0.0000000), wk =   0.0044444
        k(   99) = (   0.1000000  -0.2666667   0.0000000), wk =   0.0044444
        k(  100) = (   0.1000000  -0.2333333   0.0000000), wk =   0.0044444
        k(  101) = (   0.1000000  -0.2000000   0.0000000), wk =   0.0044444
        k(  102) = (   0.1000000  -0.1666667   0.0000000), wk =   0.0044444
        k(  103) = (   0.1000000  -0.1333333   0.0000000), wk =   0.0044444
        k(  104) = (   0.1000000  -0.1000000   0.0000000), wk =   0.0044444
        k(  105) = (   0.1000000  -0.0666667   0.0000000), wk =   0.0044444
        k(  106) = (   0.1000000  -0.0333333   0.0000000), wk =   0.0044444
        k(  107) = (   0.1333333   0.0000000   0.0000000), wk =   0.0044444
        k(  108) = (   0.1333333   0.0333333   0.0000000), wk =   0.0044444
        k(  109) = (   0.1333333   0.0666667   0.0000000), wk =   0.0044444
        k(  110) = (   0.1333333   0.1000000   0.0000000), wk =   0.0044444
        k(  111) = (   0.1333333   0.1333333   0.0000000), wk =   0.0044444
        k(  112) = (   0.1333333   0.1666667   0.0000000), wk =   0.0044444
        k(  113) = (   0.1333333   0.2000000   0.0000000), wk =   0.0044444
        k(  114) = (   0.1333333   0.2333333   0.0000000), wk =   0.0044444
        k(  115) = (   0.1333333   0.2666667   0.0000000), wk =   0.0044444
        k(  116) = (   0.1333333   0.3000000   0.0000000), wk =   0.0044444
        k(  117) = (   0.1333333   0.3333333   0.0000000), wk =   0.0044444
        k(  118) = (   0.1333333   0.3666667   0.0000000), wk =   0.0044444
        k(  119) = (   0.1333333   0.4000000   0.0000000), wk =   0.0044444
        k(  120) = (   0.1333333   0.4333333   0.0000000), wk =   0.0044444
        k(  121) = (   0.1333333   0.4666667   0.0000000), wk =   0.0044444
        k(  122) = (   0.1333333  -0.5000000   0.0000000), wk =   0.0044444
        k(  123) = (   0.1333333  -0.4666667   0.0000000), wk =   0.0044444
        k(  124) = (   0.1333333  -0.4333333   0.0000000), wk =   0.0044444
        k(  125) = (   0.1333333  -0.4000000   0.0000000), wk =   0.0044444
        k(  126) = (   0.1333333  -0.3666667   0.0000000), wk =   0.0044444
        k(  127) = (   0.1333333  -0.3333333   0.0000000), wk =   0.0044444
        k(  128) = (   0.1333333  -0.3000000   0.0000000), wk =   0.0044444
        k(  129) = (   0.1333333  -0.2666667   0.0000000), wk =   0.0044444
        k(  130) = (   0.1333333  -0.2333333   0.0000000), wk =   0.0044444
        k(  131) = (   0.1333333  -0.2000000   0.0000000), wk =   0.0044444
        k(  132) = (   0.1333333  -0.1666667   0.0000000), wk =   0.0044444
        k(  133) = (   0.1333333  -0.1333333   0.0000000), wk =   0.0044444
        k(  134) = (   0.1333333  -0.1000000   0.0000000), wk =   0.0044444
        k(  135) = (   0.1333333  -0.0666667   0.0000000), wk =   0.0044444
        k(  136) = (   0.1333333  -0.0333333   0.0000000), wk =   0.0044444
        k(  137) = (   0.1666667   0.0000000   0.0000000), wk =   0.0044444
        k(  138) = (   0.1666667   0.0333333   0.0000000), wk =   0.0044444
        k(  139) = (   0.1666667   0.0666667   0.0000000), wk =   0.0044444
        k(  140) = (   0.1666667   0.1000000   0.0000000), wk =   0.0044444
        k(  141) = (   0.1666667   0.1333333   0.0000000), wk =   0.0044444
        k(  142) = (   0.1666667   0.1666667   0.0000000), wk =   0.0044444
        k(  143) = (   0.1666667   0.2000000   0.0000000), wk =   0.0044444
        k(  144) = (   0.1666667   0.2333333   0.0000000), wk =   0.0044444
        k(  145) = (   0.1666667   0.2666667   0.0000000), wk =   0.0044444
        k(  146) = (   0.1666667   0.3000000   0.0000000), wk =   0.0044444
        k(  147) = (   0.1666667   0.3333333   0.0000000), wk =   0.0044444
        k(  148) = (   0.1666667   0.3666667   0.0000000), wk =   0.0044444
        k(  149) = (   0.1666667   0.4000000   0.0000000), wk =   0.0044444
        k(  150) = (   0.1666667   0.4333333   0.0000000), wk =   0.0044444
        k(  151) = (   0.1666667   0.4666667   0.0000000), wk =   0.0044444
        k(  152) = (   0.1666667  -0.5000000   0.0000000), wk =   0.0044444
        k(  153) = (   0.1666667  -0.4666667   0.0000000), wk =   0.0044444
        k(  154) = (   0.1666667  -0.4333333   0.0000000), wk =   0.0044444
        k(  155) = (   0.1666667  -0.4000000   0.0000000), wk =   0.0044444
        k(  156) = (   0.1666667  -0.3666667   0.0000000), wk =   0.0044444
        k(  157) = (   0.1666667  -0.3333333   0.0000000), wk =   0.0044444
        k(  158) = (   0.1666667  -0.3000000   0.0000000), wk =   0.0044444
        k(  159) = (   0.1666667  -0.2666667   0.0000000), wk =   0.0044444
        k(  160) = (   0.1666667  -0.2333333   0.0000000), wk =   0.0044444
        k(  161) = (   0.1666667  -0.2000000   0.0000000), wk =   0.0044444
        k(  162) = (   0.1666667  -0.1666667   0.0000000), wk =   0.0044444
        k(  163) = (   0.1666667  -0.1333333   0.0000000), wk =   0.0044444
        k(  164) = (   0.1666667  -0.1000000   0.0000000), wk =   0.0044444
        k(  165) = (   0.1666667  -0.0666667   0.0000000), wk =   0.0044444
        k(  166) = (   0.1666667  -0.0333333   0.0000000), wk =   0.0044444
        k(  167) = (   0.2000000   0.0000000   0.0000000), wk =   0.0044444
        k(  168) = (   0.2000000   0.0333333   0.0000000), wk =   0.0044444
        k(  169) = (   0.2000000   0.0666667   0.0000000), wk =   0.0044444
        k(  170) = (   0.2000000   0.1000000   0.0000000), wk =   0.0044444
        k(  171) = (   0.2000000   0.1333333   0.0000000), wk =   0.0044444
        k(  172) = (   0.2000000   0.1666667   0.0000000), wk =   0.0044444
        k(  173) = (   0.2000000   0.2000000   0.0000000), wk =   0.0044444
        k(  174) = (   0.2000000   0.2333333   0.0000000), wk =   0.0044444
        k(  175) = (   0.2000000   0.2666667   0.0000000), wk =   0.0044444
        k(  176) = (   0.2000000   0.3000000   0.0000000), wk =   0.0044444
        k(  177) = (   0.2000000   0.3333333   0.0000000), wk =   0.0044444
        k(  178) = (   0.2000000   0.3666667   0.0000000), wk =   0.0044444
        k(  179) = (   0.2000000   0.4000000   0.0000000), wk =   0.0044444
        k(  180) = (   0.2000000   0.4333333   0.0000000), wk =   0.0044444
        k(  181) = (   0.2000000   0.4666667   0.0000000), wk =   0.0044444
        k(  182) = (   0.2000000  -0.5000000   0.0000000), wk =   0.0044444
        k(  183) = (   0.2000000  -0.4666667   0.0000000), wk =   0.0044444
        k(  184) = (   0.2000000  -0.4333333   0.0000000), wk =   0.0044444
        k(  185) = (   0.2000000  -0.4000000   0.0000000), wk =   0.0044444
        k(  186) = (   0.2000000  -0.3666667   0.0000000), wk =   0.0044444
        k(  187) = (   0.2000000  -0.3333333   0.0000000), wk =   0.0044444
        k(  188) = (   0.2000000  -0.3000000   0.0000000), wk =   0.0044444
        k(  189) = (   0.2000000  -0.2666667   0.0000000), wk =   0.0044444
        k(  190) = (   0.2000000  -0.2333333   0.0000000), wk =   0.0044444
        k(  191) = (   0.2000000  -0.2000000   0.0000000), wk =   0.0044444
        k(  192) = (   0.2000000  -0.1666667   0.0000000), wk =   0.0044444
        k(  193) = (   0.2000000  -0.1333333   0.0000000), wk =   0.0044444
        k(  194) = (   0.2000000  -0.1000000   0.0000000), wk =   0.0044444
        k(  195) = (   0.2000000  -0.0666667   0.0000000), wk =   0.0044444
        k(  196) = (   0.2000000  -0.0333333   0.0000000), wk =   0.0044444
        k(  197) = (   0.2333333   0.0000000   0.0000000), wk =   0.0044444
        k(  198) = (   0.2333333   0.0333333   0.0000000), wk =   0.0044444
        k(  199) = (   0.2333333   0.0666667   0.0000000), wk =   0.0044444
        k(  200) = (   0.2333333   0.1000000   0.0000000), wk =   0.0044444
        k(  201) = (   0.2333333   0.1333333   0.0000000), wk =   0.0044444
        k(  202) = (   0.2333333   0.1666667   0.0000000), wk =   0.0044444
        k(  203) = (   0.2333333   0.2000000   0.0000000), wk =   0.0044444
        k(  204) = (   0.2333333   0.2333333   0.0000000), wk =   0.0044444
        k(  205) = (   0.2333333   0.2666667   0.0000000), wk =   0.0044444
        k(  206) = (   0.2333333   0.3000000   0.0000000), wk =   0.0044444
        k(  207) = (   0.2333333   0.3333333   0.0000000), wk =   0.0044444
        k(  208) = (   0.2333333   0.3666667   0.0000000), wk =   0.0044444
        k(  209) = (   0.2333333   0.4000000   0.0000000), wk =   0.0044444
        k(  210) = (   0.2333333   0.4333333   0.0000000), wk =   0.0044444
        k(  211) = (   0.2333333   0.4666667   0.0000000), wk =   0.0044444
        k(  212) = (   0.2333333  -0.5000000   0.0000000), wk =   0.0044444
        k(  213) = (   0.2333333  -0.4666667   0.0000000), wk =   0.0044444
        k(  214) = (   0.2333333  -0.4333333   0.0000000), wk =   0.0044444
        k(  215) = (   0.2333333  -0.4000000   0.0000000), wk =   0.0044444
        k(  216) = (   0.2333333  -0.3666667   0.0000000), wk =   0.0044444
        k(  217) = (   0.2333333  -0.3333333   0.0000000), wk =   0.0044444
        k(  218) = (   0.2333333  -0.3000000   0.0000000), wk =   0.0044444
        k(  219) = (   0.2333333  -0.2666667   0.0000000), wk =   0.0044444
        k(  220) = (   0.2333333  -0.2333333   0.0000000), wk =   0.0044444
        k(  221) = (   0.2333333  -0.2000000   0.0000000), wk =   0.0044444
        k(  222) = (   0.2333333  -0.1666667   0.0000000), wk =   0.0044444
        k(  223) = (   0.2333333  -0.1333333   0.0000000), wk =   0.0044444
        k(  224) = (   0.2333333  -0.1000000   0.0000000), wk =   0.0044444
        k(  225) = (   0.2333333  -0.0666667   0.0000000), wk =   0.0044444
        k(  226) = (   0.2333333  -0.0333333   0.0000000), wk =   0.0044444
        k(  227) = (   0.2666667   0.0000000   0.0000000), wk =   0.0044444
        k(  228) = (   0.2666667   0.0333333   0.0000000), wk =   0.0044444
        k(  229) = (   0.2666667   0.0666667   0.0000000), wk =   0.0044444
        k(  230) = (   0.2666667   0.1000000   0.0000000), wk =   0.0044444
        k(  231) = (   0.2666667   0.1333333   0.0000000), wk =   0.0044444
        k(  232) = (   0.2666667   0.1666667   0.0000000), wk =   0.0044444
        k(  233) = (   0.2666667   0.2000000   0.0000000), wk =   0.0044444
        k(  234) = (   0.2666667   0.2333333   0.0000000), wk =   0.0044444
        k(  235) = (   0.2666667   0.2666667   0.0000000), wk =   0.0044444
        k(  236) = (   0.2666667   0.3000000   0.0000000), wk =   0.0044444
        k(  237) = (   0.2666667   0.3333333   0.0000000), wk =   0.0044444
        k(  238) = (   0.2666667   0.3666667   0.0000000), wk =   0.0044444
        k(  239) = (   0.2666667   0.4000000   0.0000000), wk =   0.0044444
        k(  240) = (   0.2666667   0.4333333   0.0000000), wk =   0.0044444
        k(  241) = (   0.2666667   0.4666667   0.0000000), wk =   0.0044444
        k(  242) = (   0.2666667  -0.5000000   0.0000000), wk =   0.0044444
        k(  243) = (   0.2666667  -0.4666667   0.0000000), wk =   0.0044444
        k(  244) = (   0.2666667  -0.4333333   0.0000000), wk =   0.0044444
        k(  245) = (   0.2666667  -0.4000000   0.0000000), wk =   0.0044444
        k(  246) = (   0.2666667  -0.3666667   0.0000000), wk =   0.0044444
        k(  247) = (   0.2666667  -0.3333333   0.0000000), wk =   0.0044444
        k(  248) = (   0.2666667  -0.3000000   0.0000000), wk =   0.0044444
        k(  249) = (   0.2666667  -0.2666667   0.0000000), wk =   0.0044444
        k(  250) = (   0.2666667  -0.2333333   0.0000000), wk =   0.0044444
        k(  251) = (   0.2666667  -0.2000000   0.0000000), wk =   0.0044444
        k(  252) = (   0.2666667  -0.1666667   0.0000000), wk =   0.0044444
        k(  253) = (   0.2666667  -0.1333333   0.0000000), wk =   0.0044444
        k(  254) = (   0.2666667  -0.1000000   0.0000000), wk =   0.0044444
        k(  255) = (   0.2666667  -0.0666667   0.0000000), wk =   0.0044444
        k(  256) = (   0.2666667  -0.0333333   0.0000000), wk =   0.0044444
        k(  257) = (   0.3000000   0.0000000   0.0000000), wk =   0.0044444
        k(  258) = (   0.3000000   0.0333333   0.0000000), wk =   0.0044444
        k(  259) = (   0.3000000   0.0666667   0.0000000), wk =   0.0044444
        k(  260) = (   0.3000000   0.1000000   0.0000000), wk =   0.0044444
        k(  261) = (   0.3000000   0.1333333   0.0000000), wk =   0.0044444
        k(  262) = (   0.3000000   0.1666667   0.0000000), wk =   0.0044444
        k(  263) = (   0.3000000   0.2000000   0.0000000), wk =   0.0044444
        k(  264) = (   0.3000000   0.2333333   0.0000000), wk =   0.0044444
        k(  265) = (   0.3000000   0.2666667   0.0000000), wk =   0.0044444
        k(  266) = (   0.3000000   0.3000000   0.0000000), wk =   0.0044444
        k(  267) = (   0.3000000   0.3333333   0.0000000), wk =   0.0044444
        k(  268) = (   0.3000000   0.3666667   0.0000000), wk =   0.0044444
        k(  269) = (   0.3000000   0.4000000   0.0000000), wk =   0.0044444
        k(  270) = (   0.3000000   0.4333333   0.0000000), wk =   0.0044444
        k(  271) = (   0.3000000   0.4666667   0.0000000), wk =   0.0044444
        k(  272) = (   0.3000000  -0.5000000   0.0000000), wk =   0.0044444
        k(  273) = (   0.3000000  -0.4666667   0.0000000), wk =   0.0044444
        k(  274) = (   0.3000000  -0.4333333   0.0000000), wk =   0.0044444
        k(  275) = (   0.3000000  -0.4000000   0.0000000), wk =   0.0044444
        k(  276) = (   0.3000000  -0.3666667   0.0000000), wk =   0.0044444
        k(  277) = (   0.3000000  -0.3333333   0.0000000), wk =   0.0044444
        k(  278) = (   0.3000000  -0.3000000   0.0000000), wk =   0.0044444
        k(  279) = (   0.3000000  -0.2666667   0.0000000), wk =   0.0044444
        k(  280) = (   0.3000000  -0.2333333   0.0000000), wk =   0.0044444
        k(  281) = (   0.3000000  -0.2000000   0.0000000), wk =   0.0044444
        k(  282) = (   0.3000000  -0.1666667   0.0000000), wk =   0.0044444
        k(  283) = (   0.3000000  -0.1333333   0.0000000), wk =   0.0044444
        k(  284) = (   0.3000000  -0.1000000   0.0000000), wk =   0.0044444
        k(  285) = (   0.3000000  -0.0666667   0.0000000), wk =   0.0044444
        k(  286) = (   0.3000000  -0.0333333   0.0000000), wk =   0.0044444
        k(  287) = (   0.3333333   0.0000000   0.0000000), wk =   0.0044444
        k(  288) = (   0.3333333   0.0333333   0.0000000), wk =   0.0044444
        k(  289) = (   0.3333333   0.0666667   0.0000000), wk =   0.0044444
        k(  290) = (   0.3333333   0.1000000   0.0000000), wk =   0.0044444
        k(  291) = (   0.3333333   0.1333333   0.0000000), wk =   0.0044444
        k(  292) = (   0.3333333   0.1666667   0.0000000), wk =   0.0044444
        k(  293) = (   0.3333333   0.2000000   0.0000000), wk =   0.0044444
        k(  294) = (   0.3333333   0.2333333   0.0000000), wk =   0.0044444
        k(  295) = (   0.3333333   0.2666667   0.0000000), wk =   0.0044444
        k(  296) = (   0.3333333   0.3000000   0.0000000), wk =   0.0044444
        k(  297) = (   0.3333333   0.3333333   0.0000000), wk =   0.0044444
        k(  298) = (   0.3333333   0.3666667   0.0000000), wk =   0.0044444
        k(  299) = (   0.3333333   0.4000000   0.0000000), wk =   0.0044444
        k(  300) = (   0.3333333   0.4333333   0.0000000), wk =   0.0044444
        k(  301) = (   0.3333333   0.4666667   0.0000000), wk =   0.0044444
        k(  302) = (   0.3333333  -0.5000000   0.0000000), wk =   0.0044444
        k(  303) = (   0.3333333  -0.4666667   0.0000000), wk =   0.0044444
        k(  304) = (   0.3333333  -0.4333333   0.0000000), wk =   0.0044444
        k(  305) = (   0.3333333  -0.4000000   0.0000000), wk =   0.0044444
        k(  306) = (   0.3333333  -0.3666667   0.0000000), wk =   0.0044444
        k(  307) = (   0.3333333  -0.3333333   0.0000000), wk =   0.0044444
        k(  308) = (   0.3333333  -0.3000000   0.0000000), wk =   0.0044444
        k(  309) = (   0.3333333  -0.2666667   0.0000000), wk =   0.0044444
        k(  310) = (   0.3333333  -0.2333333   0.0000000), wk =   0.0044444
        k(  311) = (   0.3333333  -0.2000000   0.0000000), wk =   0.0044444
        k(  312) = (   0.3333333  -0.1666667   0.0000000), wk =   0.0044444
        k(  313) = (   0.3333333  -0.1333333   0.0000000), wk =   0.0044444
        k(  314) = (   0.3333333  -0.1000000   0.0000000), wk =   0.0044444
        k(  315) = (   0.3333333  -0.0666667   0.0000000), wk =   0.0044444
        k(  316) = (   0.3333333  -0.0333333   0.0000000), wk =   0.0044444
        k(  317) = (   0.3666667  -0.0000000   0.0000000), wk =   0.0044444
        k(  318) = (   0.3666667   0.0333333   0.0000000), wk =   0.0044444
        k(  319) = (   0.3666667   0.0666667   0.0000000), wk =   0.0044444
        k(  320) = (   0.3666667   0.1000000   0.0000000), wk =   0.0044444
        k(  321) = (   0.3666667   0.1333333   0.0000000), wk =   0.0044444
        k(  322) = (   0.3666667   0.1666667   0.0000000), wk =   0.0044444
        k(  323) = (   0.3666667   0.2000000   0.0000000), wk =   0.0044444
        k(  324) = (   0.3666667   0.2333333   0.0000000), wk =   0.0044444
        k(  325) = (   0.3666667   0.2666667   0.0000000), wk =   0.0044444
        k(  326) = (   0.3666667   0.3000000   0.0000000), wk =   0.0044444
        k(  327) = (   0.3666667   0.3333333   0.0000000), wk =   0.0044444
        k(  328) = (   0.3666667   0.3666667   0.0000000), wk =   0.0044444
        k(  329) = (   0.3666667   0.4000000   0.0000000), wk =   0.0044444
        k(  330) = (   0.3666667   0.4333333   0.0000000), wk =   0.0044444
        k(  331) = (   0.3666667   0.4666667   0.0000000), wk =   0.0044444
        k(  332) = (   0.3666667  -0.5000000   0.0000000), wk =   0.0044444
        k(  333) = (   0.3666667  -0.4666667   0.0000000), wk =   0.0044444
        k(  334) = (   0.3666667  -0.4333333   0.0000000), wk =   0.0044444
        k(  335) = (   0.3666667  -0.4000000   0.0000000), wk =   0.0044444
        k(  336) = (   0.3666667  -0.3666667   0.0000000), wk =   0.0044444
        k(  337) = (   0.3666667  -0.3333333   0.0000000), wk =   0.0044444
        k(  338) = (   0.3666667  -0.3000000   0.0000000), wk =   0.0044444
        k(  339) = (   0.3666667  -0.2666667   0.0000000), wk =   0.0044444
        k(  340) = (   0.3666667  -0.2333333   0.0000000), wk =   0.0044444
        k(  341) = (   0.3666667  -0.2000000   0.0000000), wk =   0.0044444
        k(  342) = (   0.3666667  -0.1666667   0.0000000), wk =   0.0044444
        k(  343) = (   0.3666667  -0.1333333   0.0000000), wk =   0.0044444
        k(  344) = (   0.3666667  -0.1000000   0.0000000), wk =   0.0044444
        k(  345) = (   0.3666667  -0.0666667   0.0000000), wk =   0.0044444
        k(  346) = (   0.3666667  -0.0333333   0.0000000), wk =   0.0044444
        k(  347) = (   0.4000000   0.0000000   0.0000000), wk =   0.0044444
        k(  348) = (   0.4000000   0.0333333   0.0000000), wk =   0.0044444
        k(  349) = (   0.4000000   0.0666667   0.0000000), wk =   0.0044444
        k(  350) = (   0.4000000   0.1000000   0.0000000), wk =   0.0044444
        k(  351) = (   0.4000000   0.1333333   0.0000000), wk =   0.0044444
        k(  352) = (   0.4000000   0.1666667   0.0000000), wk =   0.0044444
        k(  353) = (   0.4000000   0.2000000   0.0000000), wk =   0.0044444
        k(  354) = (   0.4000000   0.2333333   0.0000000), wk =   0.0044444
        k(  355) = (   0.4000000   0.2666667   0.0000000), wk =   0.0044444
        k(  356) = (   0.4000000   0.3000000   0.0000000), wk =   0.0044444
        k(  357) = (   0.4000000   0.3333333   0.0000000), wk =   0.0044444
        k(  358) = (   0.4000000   0.3666667   0.0000000), wk =   0.0044444
        k(  359) = (   0.4000000   0.4000000   0.0000000), wk =   0.0044444
        k(  360) = (   0.4000000   0.4333333   0.0000000), wk =   0.0044444
        k(  361) = (   0.4000000   0.4666667   0.0000000), wk =   0.0044444
        k(  362) = (   0.4000000  -0.5000000   0.0000000), wk =   0.0044444
        k(  363) = (   0.4000000  -0.4666667   0.0000000), wk =   0.0044444
        k(  364) = (   0.4000000  -0.4333333   0.0000000), wk =   0.0044444
        k(  365) = (   0.4000000  -0.4000000   0.0000000), wk =   0.0044444
        k(  366) = (   0.4000000  -0.3666667   0.0000000), wk =   0.0044444
        k(  367) = (   0.4000000  -0.3333333   0.0000000), wk =   0.0044444
        k(  368) = (   0.4000000  -0.3000000   0.0000000), wk =   0.0044444
        k(  369) = (   0.4000000  -0.2666667   0.0000000), wk =   0.0044444
        k(  370) = (   0.4000000  -0.2333333   0.0000000), wk =   0.0044444
        k(  371) = (   0.4000000  -0.2000000   0.0000000), wk =   0.0044444
        k(  372) = (   0.4000000  -0.1666667   0.0000000), wk =   0.0044444
        k(  373) = (   0.4000000  -0.1333333   0.0000000), wk =   0.0044444
        k(  374) = (   0.4000000  -0.1000000   0.0000000), wk =   0.0044444
        k(  375) = (   0.4000000  -0.0666667   0.0000000), wk =   0.0044444
        k(  376) = (   0.4000000  -0.0333333   0.0000000), wk =   0.0044444
        k(  377) = (   0.4333333   0.0000000   0.0000000), wk =   0.0044444
        k(  378) = (   0.4333333   0.0333333   0.0000000), wk =   0.0044444
        k(  379) = (   0.4333333   0.0666667   0.0000000), wk =   0.0044444
        k(  380) = (   0.4333333   0.1000000   0.0000000), wk =   0.0044444
        k(  381) = (   0.4333333   0.1333333   0.0000000), wk =   0.0044444
        k(  382) = (   0.4333333   0.1666667   0.0000000), wk =   0.0044444
        k(  383) = (   0.4333333   0.2000000   0.0000000), wk =   0.0044444
        k(  384) = (   0.4333333   0.2333333   0.0000000), wk =   0.0044444
        k(  385) = (   0.4333333   0.2666667   0.0000000), wk =   0.0044444
        k(  386) = (   0.4333333   0.3000000   0.0000000), wk =   0.0044444
        k(  387) = (   0.4333333   0.3333333   0.0000000), wk =   0.0044444
        k(  388) = (   0.4333333   0.3666667   0.0000000), wk =   0.0044444
        k(  389) = (   0.4333333   0.4000000   0.0000000), wk =   0.0044444
        k(  390) = (   0.4333333   0.4333333   0.0000000), wk =   0.0044444
        k(  391) = (   0.4333333   0.4666667   0.0000000), wk =   0.0044444
        k(  392) = (   0.4333333  -0.5000000   0.0000000), wk =   0.0044444
        k(  393) = (   0.4333333  -0.4666667   0.0000000), wk =   0.0044444
        k(  394) = (   0.4333333  -0.4333333   0.0000000), wk =   0.0044444
        k(  395) = (   0.4333333  -0.4000000   0.0000000), wk =   0.0044444
        k(  396) = (   0.4333333  -0.3666667   0.0000000), wk =   0.0044444
        k(  397) = (   0.4333333  -0.3333333   0.0000000), wk =   0.0044444
        k(  398) = (   0.4333333  -0.3000000   0.0000000), wk =   0.0044444
        k(  399) = (   0.4333333  -0.2666667   0.0000000), wk =   0.0044444
        k(  400) = (   0.4333333  -0.2333333   0.0000000), wk =   0.0044444
        k(  401) = (   0.4333333  -0.2000000   0.0000000), wk =   0.0044444
        k(  402) = (   0.4333333  -0.1666667   0.0000000), wk =   0.0044444
        k(  403) = (   0.4333333  -0.1333333   0.0000000), wk =   0.0044444
        k(  404) = (   0.4333333  -0.1000000   0.0000000), wk =   0.0044444
        k(  405) = (   0.4333333  -0.0666667   0.0000000), wk =   0.0044444
        k(  406) = (   0.4333333  -0.0333333   0.0000000), wk =   0.0044444
        k(  407) = (   0.4666667   0.0000000   0.0000000), wk =   0.0044444
        k(  408) = (   0.4666667   0.0333333   0.0000000), wk =   0.0044444
        k(  409) = (   0.4666667   0.0666667   0.0000000), wk =   0.0044444
        k(  410) = (   0.4666667   0.1000000   0.0000000), wk =   0.0044444
        k(  411) = (   0.4666667   0.1333333   0.0000000), wk =   0.0044444
        k(  412) = (   0.4666667   0.1666667   0.0000000), wk =   0.0044444
        k(  413) = (   0.4666667   0.2000000   0.0000000), wk =   0.0044444
        k(  414) = (   0.4666667   0.2333333   0.0000000), wk =   0.0044444
        k(  415) = (   0.4666667   0.2666667   0.0000000), wk =   0.0044444
        k(  416) = (   0.4666667   0.3000000   0.0000000), wk =   0.0044444
        k(  417) = (   0.4666667   0.3333333   0.0000000), wk =   0.0044444
        k(  418) = (   0.4666667   0.3666667   0.0000000), wk =   0.0044444
        k(  419) = (   0.4666667   0.4000000   0.0000000), wk =   0.0044444
        k(  420) = (   0.4666667   0.4333333   0.0000000), wk =   0.0044444
        k(  421) = (   0.4666667   0.4666667   0.0000000), wk =   0.0044444
        k(  422) = (   0.4666667  -0.5000000   0.0000000), wk =   0.0044444
        k(  423) = (   0.4666667  -0.4666667   0.0000000), wk =   0.0044444
        k(  424) = (   0.4666667  -0.4333333   0.0000000), wk =   0.0044444
        k(  425) = (   0.4666667  -0.4000000   0.0000000), wk =   0.0044444
        k(  426) = (   0.4666667  -0.3666667   0.0000000), wk =   0.0044444
        k(  427) = (   0.4666667  -0.3333333   0.0000000), wk =   0.0044444
        k(  428) = (   0.4666667  -0.3000000   0.0000000), wk =   0.0044444
        k(  429) = (   0.4666667  -0.2666667   0.0000000), wk =   0.0044444
        k(  430) = (   0.4666667  -0.2333333   0.0000000), wk =   0.0044444
        k(  431) = (   0.4666667  -0.2000000   0.0000000), wk =   0.0044444
        k(  432) = (   0.4666667  -0.1666667   0.0000000), wk =   0.0044444
        k(  433) = (   0.4666667  -0.1333333   0.0000000), wk =   0.0044444
        k(  434) = (   0.4666667  -0.1000000   0.0000000), wk =   0.0044444
        k(  435) = (   0.4666667  -0.0666667   0.0000000), wk =   0.0044444
        k(  436) = (   0.4666667  -0.0333333   0.0000000), wk =   0.0044444
        k(  437) = (  -0.5000000   0.0000000   0.0000000), wk =   0.0022222
        k(  438) = (  -0.5000000   0.0333333   0.0000000), wk =   0.0044444
        k(  439) = (  -0.5000000   0.0666667   0.0000000), wk =   0.0044444
        k(  440) = (  -0.5000000   0.1000000   0.0000000), wk =   0.0044444
        k(  441) = (  -0.5000000   0.1333333   0.0000000), wk =   0.0044444
        k(  442) = (  -0.5000000   0.1666667   0.0000000), wk =   0.0044444
        k(  443) = (  -0.5000000   0.2000000   0.0000000), wk =   0.0044444
        k(  444) = (  -0.5000000   0.2333333   0.0000000), wk =   0.0044444
        k(  445) = (  -0.5000000   0.2666667   0.0000000), wk =   0.0044444
        k(  446) = (  -0.5000000   0.3000000   0.0000000), wk =   0.0044444
        k(  447) = (  -0.5000000   0.3333333   0.0000000), wk =   0.0044444
        k(  448) = (  -0.5000000   0.3666667   0.0000000), wk =   0.0044444
        k(  449) = (  -0.5000000   0.4000000   0.0000000), wk =   0.0044444
        k(  450) = (  -0.5000000   0.4333333   0.0000000), wk =   0.0044444
        k(  451) = (  -0.5000000   0.4666667   0.0000000), wk =   0.0044444
        k(  452) = (  -0.5000000  -0.5000000   0.0000000), wk =   0.0022222

     Dense  grid:  2261433 G-vectors     FFT dimensions: ( 144, 144, 270)

     Smooth grid:   571933 G-vectors     FFT dimensions: (  90,  90, 180)

     Dynamical RAM for                 wfc:       6.82 MB

     Dynamical RAM for     wfc (w. buffer):       6.82 MB

     Dynamical RAM for           str. fact:       4.31 MB

     Dynamical RAM for           local pot:       0.00 MB

     Dynamical RAM for          nlocal pot:      20.59 MB

     Dynamical RAM for                qrad:       4.39 MB

     Dynamical RAM for          rho,v,vnew:      14.54 MB

     Dynamical RAM for           G-vectors:       8.36 MB

     Dynamical RAM for          h,s,v(r/c):       7.32 MB

     Dynamical RAM for          <psi|beta>:       0.46 MB

     Dynamical RAM for                 psi:      27.28 MB

     Dynamical RAM for                hpsi:      27.28 MB

     Dynamical RAM for      wfcinit/wfcrot:      60.70 MB

     Estimated static dynamical RAM per process >      78.94 MB

     Estimated max dynamical RAM per process >     141.27 MB

     Estimated total dynamical RAM >       2.21 GB

     The potential is recalculated from file :
     ./out/3x3_MoS2_mo.save/charge-density

     Starting wfcs are  416 randomized atomic wfcs

     Band Structure Calculation
     Davidson diagonalization with overlap

     Computing kpt #:     1  of   452
     total cpu time spent up to now is       65.7 secs

     Computing kpt #:     2  of   452
     total cpu time spent up to now is      124.3 secs

     Computing kpt #:     3  of   452
     total cpu time spent up to now is      182.8 secs

     Computing kpt #:     4  of   452
     total cpu time spent up to now is      240.7 secs

     Computing kpt #:     5  of   452
     total cpu time spent up to now is      297.5 secs

     Computing kpt #:     6  of   452
     total cpu time spent up to now is      355.2 secs

     Computing kpt #:     7  of   452
     total cpu time spent up to now is      408.6 secs

     Computing kpt #:     8  of   452
[...]
    -4.8560  -4.8353  -4.8070  -4.7474  -4.7118  -4.6235  -4.5313  -4.5043
    -4.4106  -4.3201  -4.2702  -4.0889  -3.7853  -3.7531  -3.6931  -3.5638
    -3.5208  -3.4550  -3.3587  -3.2981  -3.0947  -3.0273  -2.9341  -2.8769
    -2.8054  -2.6896  -2.6662  -2.4107  -2.3717  -2.1765  -2.0841  -2.0185
    -1.9752  -1.8562  -1.8030  -1.7294  -1.4082  -0.9945  -0.7309  -0.6308
    -0.4461   0.8288   0.8368   0.9122   0.9547   1.0958   1.1941   1.2746
     1.3171   1.3555   1.3863   1.4374   1.4810   1.5333   1.6582   1.7113
     1.7816   1.8162   1.8862   1.9975

     occupation numbers 
     1.0000   1.0000   1.0000   1.0000   1.0000   1.0000   1.0000   1.0000
     1.0000   1.0000   1.0000   1.0000   1.0000   1.0000   1.0000   1.0000
     1.0000   1.0000   1.0000   1.0000   1.0000   1.0000   1.0000   1.0000
     1.0000   1.0000   1.0000   1.0000   1.0000   1.0000   1.0000   1.0000
     1.0000   1.0000   1.0000   1.0000   1.0000   1.0000   1.0000   1.0000
     1.0000   1.0000   1.0000   1.0000   1.0000   1.0000   1.0000   1.0000
     1.0000   1.0000   1.0000   1.0000   1.0000   1.0000   1.0000   1.0000
     1.0000   1.0000   1.0000   1.0000   1.0000   1.0000   1.0000   1.0000
     1.0000   1.0000   1.0000   1.0000   1.0000   1.0000   1.0000   1.0000
     1.0000   1.0000   1.0000   1.0000   1.0000   1.0000   0.0000   0.0000
     0.0000   0.0000   0.0000   0.0000   0.0000   0.0000   0.0000   0.0000
     0.0000   0.0000   0.0000   0.0000   0.0000   0.0000   0.0000   0.0000
     0.0000   0.0000   0.0000   0.0000

          k =-0.5011 0.0192 0.0000 ( 71489 PWs)   bands (ev):

   -15.4882 -15.1805 -14.8799 -14.4022 -14.2700 -14.2138 -14.0584 -14.0017
   -13.9051 -13.6938 -13.5643 -13.5558 -13.5179 -13.3235 -13.2578 -13.1899
   -12.8254 -12.7640  -7.3873  -7.2029  -7.0617  -6.9384  -6.7781  -6.7467
    -6.6902  -6.6508  -6.5966  -6.5329  -6.4291  -6.3172  -6.3027  -5.9388
    -5.7550  -5.5878  -5.4000  -5.2918  -5.1817  -5.1168  -4.9901  -4.9064
    -4.8564  -4.8349  -4.8069  -4.7469  -4.7120  -4.6236  -4.5317  -4.5038
    -4.4109  -4.3201  -4.2703  -4.0890  -3.7851  -3.7532  -3.6930  -3.5638
    -3.5209  -3.4549  -3.3587  -3.2982  -3.0948  -3.0274  -2.9345  -2.8765
    -2.8056  -2.6893  -2.6661  -2.4109  -2.3717  -2.1766  -2.0841  -2.0185
    -1.9752  -1.8563  -1.8031  -1.7295  -1.4080  -0.9944  -0.7309  -0.6307
    -0.4460   0.8290   0.8370   0.9122   0.9546   1.0958   1.1941   1.2746
     1.3169   1.3557   1.3860   1.4375   1.4810   1.5333   1.6580   1.7112
     1.7815   1.8163   1.8861   1.9975

     occupation numbers 
     1.0000   1.0000   1.0000   1.0000   1.0000   1.0000   1.0000   1.0000
     1.0000   1.0000   1.0000   1.0000   1.0000   1.0000   1.0000   1.0000
     1.0000   1.0000   1.0000   1.0000   1.0000   1.0000   1.0000   1.0000
     1.0000   1.0000   1.0000   1.0000   1.0000   1.0000   1.0000   1.0000
     1.0000   1.0000   1.0000   1.0000   1.0000   1.0000   1.0000   1.0000
     1.0000   1.0000   1.0000   1.0000   1.0000   1.0000   1.0000   1.0000
     1.0000   1.0000   1.0000   1.0000   1.0000   1.0000   1.0000   1.0000
     1.0000   1.0000   1.0000   1.0000   1.0000   1.0000   1.0000   1.0000
     1.0000   1.0000   1.0000   1.0000   1.0000   1.0000   1.0000   1.0000
     1.0000   1.0000   1.0000   1.0000   1.0000   1.0000   0.0000   0.0000
     0.0000   0.0000   0.0000   0.0000   0.0000   0.0000   0.0000   0.0000
     0.0000   0.0000   0.0000   0.0000   0.0000   0.0000   0.0000   0.0000
     0.0000   0.0000   0.0000   0.0000

          k =-0.5010 0.0578 0.0000 ( 71484 PWs)   bands (ev):

   -15.4864 -15.1894 -14.8658 -14.4013 -14.2888 -14.2221 -14.0424 -13.9939
   -13.9048 -13.7028 -13.5638 -13.5514 -13.5178 -13.3223 -13.2575 -13.1923
   -12.8249 -12.7648  -7.3965  -7.1875  -7.0593  -6.9374  -6.7809  -6.7435
    -6.6972  -6.6619  -6.5966  -6.5181  -6.4312  -6.3182  -6.3033  -5.9858
    -5.6974  -5.5844  -5.4039  -5.2981  -5.1781  -5.1163  -4.9915  -4.9171
    -4.8650  -4.8309  -4.8051  -4.7483  -4.7111  -4.6233  -4.5509  -4.5036
    -4.3952  -4.3229  -4.2525  -4.1090  -3.7640  -3.7521  -3.6914  -3.5684
    -3.5066  -3.4555  -3.3553  -3.2873  -3.1005  -3.0307  -2.9811  -2.9127
    -2.8351  -2.6461  -2.6079  -2.4216  -2.3672  -2.1795  -2.0822  -2.0224
    -1.9721  -1.8600  -1.8020  -1.7315  -1.4110  -0.9905  -0.7376  -0.6308
    -0.4436   0.8135   0.8195   0.9318   0.9724   1.0971   1.1926   1.2725
     1.3136   1.3581   1.3833   1.4444   1.4825   1.5417   1.6560   1.7112
     1.7753   1.8175   1.8902   1.9867

     occupation numbers 
     1.0000   1.0000   1.0000   1.0000   1.0000   1.0000   1.0000   1.0000
     1.0000   1.0000   1.0000   1.0000   1.0000   1.0000   1.0000   1.0000
     1.0000   1.0000   1.0000   1.0000   1.0000   1.0000   1.0000   1.0000
     1.0000   1.0000   1.0000   1.0000   1.0000   1.0000   1.0000   1.0000
     1.0000   1.0000   1.0000   1.0000   1.0000   1.0000   1.0000   1.0000
     1.0000   1.0000   1.0000   1.0000   1.0000   1.0000   1.0000   1.0000
     1.0000   1.0000   1.0000   1.0000   1.0000   1.0000   1.0000   1.0000
     1.0000   1.0000   1.0000   1.0000   1.0000   1.0000   1.0000   1.0000
     1.0000   1.0000   1.0000   1.0000   1.0000   1.0000   1.0000   1.0000
     1.0000   1.0000   1.0000   1.0000   1.0000   1.0000   0.0000   0.0000
     0.0000   0.0000   0.0000   0.0000   0.0000   0.0000   0.0000   0.0000
     0.0000   0.0000   0.0000   0.0000   0.0000   0.0000   0.0000   0.0000
     0.0000   0.0000   0.0000   0.0000

          k =-0.5010 0.0964 0.0000 ( 71503 PWs)   bands (ev):

   -15.4830 -15.2046 -14.8403 -14.3995 -14.3226 -14.2325 -14.0191 -13.9796
   -13.9039 -13.7185 -13.5640 -13.5435 -13.5176 -13.3199 -13.2571 -13.1968
   -12.8238 -12.7663  -7.4106  -7.1613  -7.0548  -6.9355  -6.7880  -6.7375
    -6.7092  -6.6759  -6.5970  -6.4959  -6.4355  -6.3202  -6.3045  -6.0417
    -5.6203  -5.5774  -5.4112  -5.3089  -5.1750  -5.1110  -4.9952  -4.9372
    -4.8734  -4.8318  -4.8073  -4.7443  -4.7074  -4.6243  -4.5785  -4.5095
    -4.3740  -4.3301  -4.2141  -4.1344  -3.7628  -3.7346  -3.6731  -3.5754
    -3.4893  -3.4508  -3.3466  -3.2687  -3.1179  -3.0742  -3.0306  -2.9272
    -2.8687  -2.6171  -2.5182  -2.4376  -2.3621  -2.1846  -2.0791  -2.0289
    -1.9681  -1.8671  -1.7996  -1.7353  -1.4167  -0.9829  -0.7499  -0.6310
    -0.4394   0.7883   0.8019   0.9546   1.0010   1.0997   1.1895   1.2658
     1.3115   1.3619   1.3809   1.4535   1.4867   1.5567   1.6509   1.7115
     1.7666   1.8178   1.9004   1.9675

     occupation numbers 
     1.0000   1.0000   1.0000   1.0000   1.0000   1.0000   1.0000   1.0000
     1.0000   1.0000   1.0000   1.0000   1.0000   1.0000   1.0000   1.0000
     1.0000   1.0000   1.0000   1.0000   1.0000   1.0000   1.0000   1.0000
     1.0000   1.0000   1.0000   1.0000   1.0000   1.0000   1.0000   1.0000
     1.0000   1.0000   1.0000   1.0000   1.0000   1.0000   1.0000   1.0000
     1.0000   1.0000   1.0000   1.0000   1.0000   1.0000   1.0000   1.0000
     1.0000   1.0000   1.0000   1.0000   1.0000   1.0000   1.0000   1.0000
     1.0000   1.0000   1.0000   1.0000   1.0000   1.0000   1.0000   1.0000
     1.0000   1.0000   1.0000   1.0000   1.0000   1.0000   1.0000   1.0000
     1.0000   1.0000   1.0000   1.0000   1.0000   1.0000   0.0000   0.0000
     0.0000   0.0000   0.0000   0.0000   0.0000   0.0000   0.0000   0.0000
     0.0000   0.0000   0.0000   0.0000   0.0000   0.0000   0.0000   0.0000
     0.0000   0.0000   0.0000   0.0000

          k =-0.5010 0.1350 0.0000 ( 71495 PWs)   bands (ev):

   -15.4782 -15.2226 -14.8070 -14.3974 -14.3643 -14.2429 -13.9951 -13.9618
   -13.9021 -13.7382 -13.5647 -13.5346 -13.5173 -13.3166 -13.2565 -13.2029
   -12.8223 -12.7683  -7.4257  -7.1294  -7.0484  -6.9328  -6.8007  -6.7395
    -6.7130  -6.6877  -6.5980  -6.4735  -6.4413  -6.3230  -6.3065  -6.0925
    -5.5694  -5.5348  -5.4218  -5.3218  -5.1763  -5.0969  -5.0028  -4.9642
    -4.8808  -4.8422  -4.8107  -4.7327  -4.7018  -4.6281  -4.6063  -4.5230
    -4.3638  -4.3318  -4.1669  -4.1444  -3.7704  -3.7279  -3.6320  -3.5830
    -3.4854  -3.4295  -3.3326  -3.2468  -3.1907  -3.1150  -3.0402  -2.9472
    -2.8958  -2.5875  -2.4560  -2.4347  -2.3551  -2.1908  -2.0753  -2.0365
    -1.9671  -1.8757  -1.7962  -1.7405  -1.4239  -0.9722  -0.7664  -0.6313
    -0.4346   0.7654   0.7830   0.9772   1.0317   1.1031   1.1847   1.2545
     1.3131   1.3650   1.3824   1.4605   1.4954   1.5752   1.6412   1.7127
     1.7593   1.8164   1.9155   1.9438

     occupation numbers 
     1.0000   1.0000   1.0000   1.0000   1.0000   1.0000   1.0000   1.0000
     1.0000   1.0000   1.0000   1.0000   1.0000   1.0000   1.0000   1.0000
     1.0000   1.0000   1.0000   1.0000   1.0000   1.0000   1.0000   1.0000
     1.0000   1.0000   1.0000   1.0000   1.0000   1.0000   1.0000   1.0000
     1.0000   1.0000   1.0000   1.0000   1.0000   1.0000   1.0000   1.0000
     1.0000   1.0000   1.0000   1.0000   1.0000   1.0000   1.0000   1.0000
     1.0000   1.0000   1.0000   1.0000   1.0000   1.0000   1.0000   1.0000
     1.0000   1.0000   1.0000   1.0000   1.0000   1.0000   1.0000   1.0000
     1.0000   1.0000   1.0000   1.0000   1.0000   1.0000   1.0000   1.0000
     1.0000   1.0000   1.0000   1.0000   1.0000   1.0000   0.0000   0.0000
     0.0000   0.0000   0.0000   0.0000   0.0000   0.0000   0.0000   0.0000
     0.0000   0.0000   0.0000   0.0000   0.0000   0.0000   0.0000   0.0000
     0.0000   0.0000   0.0000   0.0000

          k =-0.5010 0.1736 0.0000 ( 71503 PWs)   bands (ev):

   -15.4728 -15.2402 -14.7696 -14.4109 -14.3928 -14.2523 -13.9725 -13.9449
   -13.8988 -13.7595 -13.5656 -13.5264 -13.5170 -13.3127 -13.2557 -13.2097
   -12.8207 -12.7704  -7.4391  -7.0965  -7.0403  -6.9292  -6.8197  -6.7522
    -6.7116  -6.6869  -6.5998  -6.4646  -6.4384  -6.3264  -6.3097  -6.1332
    -5.5566  -5.4503  -5.4350  -5.3337  -5.1810  -5.0751  -5.0211  -4.9903
    -4.8894  -4.8607  -4.8084  -4.7228  -4.6949  -4.6434  -4.6171  -4.5432
    -4.3752  -4.3173  -4.1709  -4.0815  -3.7820  -3.7234  -3.5980  -3.5805
    -3.4906  -3.4056  -3.3242  -3.2727  -3.2175  -3.1366  -3.0521  -2.9789
    -2.9098  -2.5611  -2.4724  -2.3842  -2.3257  -2.1971  -2.0712  -2.0443
    -1.9741  -1.8819  -1.7924  -1.7465  -1.4313  -0.9595  -0.7851  -0.6315
    -0.4298   0.7474   0.7651   0.9993   1.0585   1.1066   1.1784   1.2421
     1.3169   1.3657   1.3895   1.4642   1.5078   1.5941   1.6268   1.7164
     1.7552   1.8136   1.9069   1.9451

     occupation numbers 
     1.0000   1.0000   1.0000   1.0000   1.0000   1.0000   1.0000   1.0000
     1.0000   1.0000   1.0000   1.0000   1.0000   1.0000   1.0000   1.0000
     1.0000   1.0000   1.0000   1.0000   1.0000   1.0000   1.0000   1.0000
     1.0000   1.0000   1.0000   1.0000   1.0000   1.0000   1.0000   1.0000
     1.0000   1.0000   1.0000   1.0000   1.0000   1.0000   1.0000   1.0000
     1.0000   1.0000   1.0000   1.0000   1.0000   1.0000   1.0000   1.0000
     1.0000   1.0000   1.0000   1.0000   1.0000   1.0000   1.0000   1.0000
     1.0000   1.0000   1.0000   1.0000   1.0000   1.0000   1.0000   1.0000
     1.0000   1.0000   1.0000   1.0000   1.0000   1.0000   1.0000   1.0000
     1.0000   1.0000   1.0000   1.0000   1.0000   1.0000   0.0000   0.0000
     0.0000   0.0000   0.0000   0.0000   0.0000   0.0000   0.0000   0.0000
     0.0000   0.0000   0.0000   0.0000   0.0000   0.0000   0.0000   0.0000
     0.0000   0.0000   0.0000   0.0000

          k =-0.5010 0.2121 0.0000 ( 71485 PWs)   bands (ev):

   -15.4677 -15.2550 -14.7319 -14.4533 -14.3910 -14.2601 -13.9524 -13.9331
   -13.8934 -13.7799 -13.5665 -13.5203 -13.5165 -13.3088 -13.2550 -13.2164
   -12.8192 -12.7724  -7.4494  -7.0683  -7.0297  -6.9239  -6.8439  -6.7630
    -6.7196  -6.6699  -6.6030  -6.4745  -6.4227  -6.3295  -6.3138  -6.1619
    -5.5424  -5.4507  -5.3728  -5.3363  -5.1864  -5.0648  -5.0460  -5.0020
    -4.9075  -4.8743  -4.8012  -4.7298  -4.6827  -4.6549  -4.6156  -4.5676
    -4.3901  -4.3019  -4.1761  -4.0058  -3.7979  -3.7134  -3.6013  -3.5502
    -3.5013  -3.4259  -3.3336  -3.2722  -3.1938  -3.1606  -3.0661  -3.0137
    -2.9162  -2.5404  -2.4855  -2.3757  -2.2662  -2.2024  -2.0671  -2.0511
    -1.9923  -1.8830  -1.7890  -1.7525  -1.4378  -0.9461  -0.8034  -0.6317
    -0.4260   0.7352   0.7502   1.0201   1.0775   1.1084   1.1724   1.2317
     1.3206   1.3654   1.3995   1.4658   1.5212   1.6040   1.6164   1.7235
     1.7535   1.8103   1.8786   1.9680

     occupation numbers 
     1.0000   1.0000   1.0000   1.0000   1.0000   1.0000   1.0000   1.0000
     1.0000   1.0000   1.0000   1.0000   1.0000   1.0000   1.0000   1.0000
     1.0000   1.0000   1.0000   1.0000   1.0000   1.0000   1.0000   1.0000
     1.0000   1.0000   1.0000   1.0000   1.0000   1.0000   1.0000   1.0000
     1.0000   1.0000   1.0000   1.0000   1.0000   1.0000   1.0000   1.0000
     1.0000   1.0000   1.0000   1.0000   1.0000   1.0000   1.0000   1.0000
     1.0000   1.0000   1.0000   1.0000   1.0000   1.0000   1.0000   1.0000
     1.0000   1.0000   1.0000   1.0000   1.0000   1.0000   1.0000   1.0000
     1.0000   1.0000   1.0000   1.0000   1.0000   1.0000   1.0000   1.0000
     1.0000   1.0000   1.0000   1.0000   1.0000   1.0000   0.0000   0.0000
     0.0000   0.0000   0.0000   0.0000   0.0000   0.0000   0.0000   0.0000
     0.0000   0.0000   0.0000   0.0000   0.0000   0.0000   0.0000   0.0000
     0.0000   0.0000   0.0000   0.0000

          k =-0.5010 0.2507 0.0000 ( 71493 PWs)   bands (ev):

   -15.4639 -15.2649 -14.7003 -14.4880 -14.3893 -14.2652 -13.9372 -13.9275
   -13.8874 -13.7959 -13.5672 -13.5178 -13.5148 -13.3058 -13.2544 -13.2213
   -12.8181 -12.7738  -7.4559  -7.0519  -7.0169  -6.9148  -6.8700  -6.7695
    -6.7265  -6.6513  -6.6081  -6.4860  -6.4100  -6.3312  -6.3180  -6.1785
    -5.5286  -5.4656  -5.3568  -5.2789  -5.1915  -5.1166  -5.0281  -4.9973
    -4.9360  -4.8787  -4.7897  -4.7493  -4.6730  -4.6493  -4.6121  -4.5924
    -4.4012  -4.2915  -4.1780  -3.9360  -3.8191  -3.6943  -3.6067  -3.5543
    -3.5126  -3.4613  -3.3154  -3.2482  -3.1913  -3.1689  -3.0788  -3.0424
    -2.9192  -2.5282  -2.4927  -2.3758  -2.2171  -2.2045  -2.0657  -2.0523
    -2.0172  -1.8811  -1.7866  -1.7570  -1.4421  -0.9350  -0.8178  -0.6318
    -0.4236   0.7287   0.7397   1.0369   1.0877   1.1069   1.1692   1.2250
     1.3232   1.3653   1.4082   1.4661   1.5330   1.5908   1.6255   1.7322
     1.7527   1.8072   1.8552   1.9878

     occupation numbers 
     1.0000   1.0000   1.0000   1.0000   1.0000   1.0000   1.0000   1.0000
     1.0000   1.0000   1.0000   1.0000   1.0000   1.0000   1.0000   1.0000
     1.0000   1.0000   1.0000   1.0000   1.0000   1.0000   1.0000   1.0000
     1.0000   1.0000   1.0000   1.0000   1.0000   1.0000   1.0000   1.0000
     1.0000   1.0000   1.0000   1.0000   1.0000   1.0000   1.0000   1.0000
     1.0000   1.0000   1.0000   1.0000   1.0000   1.0000   1.0000   1.0000
     1.0000   1.0000   1.0000   1.0000   1.0000   1.0000   1.0000   1.0000
     1.0000   1.0000   1.0000   1.0000   1.0000   1.0000   1.0000   1.0000
     1.0000   1.0000   1.0000   1.0000   1.0000   1.0000   1.0000   1.0000
     1.0000   1.0000   1.0000   1.0000   1.0000   1.0000   0.0000   0.0000
     0.0000   0.0000   0.0000   0.0000   0.0000   0.0000   0.0000   0.0000
     0.0000   0.0000   0.0000   0.0000   0.0000   0.0000   0.0000   0.0000
     0.0000   0.0000   0.0000   0.0000

          k =-0.5011-0.8680 0.0000 ( 71480 PWs)   bands (ev):

   -15.4625 -15.2684 -14.6868 -14.5025 -14.3886 -14.2670 -13.9308 -13.9267
   -13.8846 -13.8024 -13.5674 -13.5174 -13.5137 -13.3046 -13.2542 -13.2232
   -12.8176 -12.7744  -7.4580  -7.0472  -7.0103  -6.9041  -6.8877  -6.7716
    -6.7291  -6.6418  -6.6122  -6.4910  -6.4053  -6.3316  -6.3199  -6.1839
    -5.5216  -5.4730  -5.3577  -5.2259  -5.2008  -5.1544  -5.0245  -4.9790
    -4.9598  -4.8797  -4.7789  -4.7641  -4.6712  -4.6385  -4.6101  -4.6078
    -4.4052  -4.2879  -4.1784  -3.8989  -3.8367  -3.6773  -3.6120  -3.5798
    -3.5102  -3.4676  -3.3055  -3.2279  -3.2120  -3.1602  -3.0843  -3.0546
    -2.9202  -2.5247  -2.4944  -2.3763  -2.2091  -2.1924  -2.0674  -2.0451
    -2.0352  -1.8800  -1.7857  -1.7588  -1.4436  -0.9304  -0.8236  -0.6319
    -0.4227   0.7269   0.7357   1.0442   1.0904   1.1053   1.1686   1.2226
     1.3241   1.3654   1.4117   1.4661   1.5386   1.5837   1.6297   1.7369
     1.7522   1.8057   1.8458   1.9960

     occupation numbers 
     1.0000   1.0000   1.0000   1.0000   1.0000   1.0000   1.0000   1.0000
     1.0000   1.0000   1.0000   1.0000   1.0000   1.0000   1.0000   1.0000
     1.0000   1.0000   1.0000   1.0000   1.0000   1.0000   1.0000   1.0000
     1.0000   1.0000   1.0000   1.0000   1.0000   1.0000   1.0000   1.0000
     1.0000   1.0000   1.0000   1.0000   1.0000   1.0000   1.0000   1.0000
     1.0000   1.0000   1.0000   1.0000   1.0000   1.0000   1.0000   1.0000
     1.0000   1.0000   1.0000   1.0000   1.0000   1.0000   1.0000   1.0000
     1.0000   1.0000   1.0000   1.0000   1.0000   1.0000   1.0000   1.0000
     1.0000   1.0000   1.0000   1.0000   1.0000   1.0000   1.0000   1.0000
     1.0000   1.0000   1.0000   1.0000   1.0000   1.0000   0.0000   0.0000
     0.0000   0.0000   0.0000   0.0000   0.0000   0.0000   0.0000   0.0000
     0.0000   0.0000   0.0000   0.0000   0.0000   0.0000   0.0000   0.0000
     0.0000   0.0000   0.0000   0.0000

     highest occupied, lowest unoccupied level (ev):    -0.8558   -0.8236

     Writing output data file ./out/3x3_MoS2_mo.save/

     init_run     :      2.29s CPU      2.40s WALL (       1 calls)
     electrons    :  23649.23s CPU  23980.57s WALL (       1 calls)

     Called by init_run:
     wfcinit      :      0.00s CPU      0.00s WALL (       1 calls)
     wfcinit:atom :      6.59s CPU     16.11s WALL (     452 calls)
     wfcinit:wfcr :   7579.89s CPU   7671.23s WALL (     452 calls)
     potinit      :      0.20s CPU      0.25s WALL (       1 calls)
     hinit0       :      0.65s CPU      0.68s WALL (       1 calls)

     Called by electrons:
     c_bands      :  23649.16s CPU  23980.48s WALL (       1 calls)
     v_of_rho     :      0.08s CPU      0.09s WALL (       1 calls)
     v_h          :      0.03s CPU      0.04s WALL (       1 calls)
     v_xc         :      0.04s CPU      0.05s WALL (       1 calls)

     Called by c_bands:
     init_us_2    :      5.25s CPU      5.42s WALL (     452 calls)
     cegterg      :  15987.32s CPU  16210.95s WALL (     523 calls)

     Called by sum_band:

     Called by *egterg:
     h_psi        :  11001.45s CPU  11257.70s WALL (    9268 calls)
     g_psi        :      7.90s CPU      7.96s WALL (    8293 calls)
     cdiaghg      :    767.93s CPU    768.80s WALL (    8745 calls)
     cegterg:over :   2808.88s CPU   2821.47s WALL (    8293 calls)
     cegterg:upda :   2707.81s CPU   2726.03s WALL (    8293 calls)
     cegterg:last :   1978.64s CPU   1986.06s WALL (    1427 calls)

     Called by h_psi:
     h_psi:calbec :   4904.75s CPU   4922.61s WALL (    9268 calls)
     vloc_psi     :   2108.14s CPU   2321.28s WALL (    9268 calls)
     add_vuspsi   :   3966.45s CPU   3979.66s WALL (    9268 calls)

     General routines
     calbec       :   4904.66s CPU   4922.57s WALL (    9268 calls)
     fft          :      0.10s CPU      0.13s WALL (       4 calls)
     ffts         :      0.01s CPU      0.01s WALL (       1 calls)
     fftw         :   2011.09s CPU   2215.35s WALL ( 1250602 calls)
     interpolate  :      0.05s CPU      0.06s WALL (       1 calls)
     davcio       :      0.55s CPU      7.05s WALL (     904 calls)

     Parallel routines
     fft_scatt_xy :    135.41s CPU    147.71s WALL ( 1250607 calls)
     fft_scatt_yz :    561.15s CPU    633.69s WALL ( 1250607 calls)

     PWSCF        :      6h34m CPU      6h42m WALL


   This run was terminated on:  19: 2: 0   3Jun2022            

=------------------------------------------------------------------------------=
   JOB DONE.
=------------------------------------------------------------------------------=
