
     Program PWSCF v.6.5Max starts on  3Jun2022 at 19:24: 8 

     This program is part of the open-source Quantum ESPRESSO suite
     for quantum simulation of materials; please cite
         "P. Giannozzi et al., J. Phys.:Condens. Matter 21 395502 (2009);
         "P. Giannozzi et al., J. Phys.:Condens. Matter 29 465901 (2017);
          URL http://www.quantum-espresso.org", 
     in publications or presentations arising from this work. More details at
     http://www.quantum-espresso.org/quote

     Parallel version (MPI), running on    16 processors

     MPI processes distributed on     1 nodes
     R & G space division:  proc/nbgrp/npool/nimage =      16
     Waiting for input...
     Reading input from standard input

     Current dimensions of program PWSCF are:
     Max number of different atomic species (ntypx) = 10
     Max number of k-points (npk) =  40000
     Max angular momentum in pseudopotentials (lmaxx) =  3

     Atomic positions and unit cell read from directory:
     ./out/3x3_MoS2_mo.save/                                                                                                                                                                                                                                         

               file Mo.pw-mt_fhi.UPF: wavefunction(s)  4f renormalized
               file S.pw-mt_fhi.UPF: wavefunction(s)  4f renormalized

     -------------------------------------------------
     Parameters for Dispersion (Grimme-D2) Correction:
     -------------------------------------------------
       atom      VdW radius       C_6     

        Mo         3.097        855.833
        S          3.180        193.230

     Subspace diagonalization in iterative solution of the eigenvalue problem:
     a serial algorithm will be used

     Message from routine setup:
     no reason to have ecutrho>4*ecutwfc

     Parallelization info
     --------------------
     sticks:   dense  smooth     PW     G-vecs:    dense   smooth      PW
     Min         795     318     84               141338    35744    4894
     Max         797     319     85               141341    35751    4905
     Sum       12727    5089   1357              2261433   571933   78355



     bravais-lattice index     =            0
     lattice parameter (alat)  =      17.5735  a.u.
     unit-cell volume          =    9111.0240 (a.u.)^3
     number of atoms/cell      =           26
     number of atomic types    =            2
     number of electrons       =       156.00
     number of Kohn-Sham states=          100
     kinetic-energy cutoff     =      60.0000  Ry
     charge density cutoff     =     600.0000  Ry
     Exchange-correlation= SLA-PW
                           (   1   4   0   0   0   0   0)

     celldm(1)=  17.573519  celldm(2)=   0.000000  celldm(3)=   0.000000
     celldm(4)=   0.000000  celldm(5)=   0.000000  celldm(6)=   0.000000

     crystal axes: (cart. coord. in units of alat)
               a(1) = (   0.997901  -0.000076   0.000000 )  
               a(2) = (  -0.499016   0.864143   0.000000 )  
               a(3) = (   0.000000   0.000000   1.946870 )  

     reciprocal axes: (cart. coord. in units 2 pi/alat)
               b(1) = (  1.002148  0.578710 -0.000000 )  
               b(2) = (  0.000088  1.157267 -0.000000 )  
               b(3) = ( -0.000000 -0.000000  0.513645 )  


     PseudoPot. # 1 for Mo read from file:
     ./Mo.pw-mt_fhi.UPF
     MD5 check sum: 39557091c5c29ab518dcc42d2770f0a9
     Pseudo is Norm-conserving, Zval =  6.0
     Generated using FHI98PP, converted with fhi2upf.x v.5.0.1
     Using radial grid of  541 points,  3 beta functions with: 
                l(1) =   0
                l(2) =   2
                l(3) =   3

     PseudoPot. # 2 for S  read from file:
     ./S.pw-mt_fhi.UPF
     MD5 check sum: 498597b413bac406373b42162ed9f1a5
     Pseudo is Norm-conserving, Zval =  6.0
     Generated using FHI98PP, converted with fhi2upf.x v.5.0.1
     Using radial grid of  501 points,  3 beta functions with: 
                l(1) =   0
                l(2) =   1
                l(3) =   3

     atomic species   valence    mass     pseudopotential
        Mo             6.00    95.95000     Mo( 1.00)
        S              6.00    32.06500     S ( 1.00)

     No symmetry found


                                    s                        frac. trans.

      isym =  1     identity                                     

 cryst.   s( 1) = (     1          0          0      )
                  (     0          1          0      )
                  (     0          0          1      )

 cart.    s( 1) = (  1.0000000  0.0000000  0.0000000 )
                  (  0.0000000  1.0000000  0.0000000 )
                  (  0.0000000  0.0000000  1.0000000 )


   Cartesian axes

     site n.     atom                  positions (alat units)
         1           Mo  tau(   1) = (   0.1690316   0.0956945   1.2044210  )
         2           S   tau(   2) = (   0.0004165   0.1937362   1.3658801  )
         3           S   tau(   3) = (   0.0025124   0.1902760   1.0342524  )
         4           Mo  tau(   4) = (   0.0017081   0.3852503   1.1957635  )
         5           S   tau(   5) = (  -0.1619619   0.4796776   1.3657781  )
         6           S   tau(   6) = (  -0.1709244   0.4796409   1.0342775  )
         7           Mo  tau(   7) = (  -0.1664310   0.6711912   1.1999992  )
         8           S   tau(   8) = (  -0.3346269   0.7629910   1.3656937  )
         9           S   tau(   9) = (  -0.3300162   0.7709456   1.0342863  )
        10           Mo  tau(  10) = (   0.4961693   0.0956403   1.1956339  )
        11           S   tau(  11) = (   0.3279846   0.1917834   1.3643265  )
        12           S   tau(  12) = (   0.3371729   0.1921740   1.0360409  )
        13           S   tau(  13) = (   0.1690522   0.4828090   1.3642049  )
        14           S   tau(  14) = (   0.1644521   0.4748287   1.0357841  )
        15           Mo  tau(  15) = (   0.1652549   0.6685189   1.2042180  )
        16           S   tau(  16) = (  -0.0027906   0.7708785   1.3656992  )
        17           S   tau(  17) = (   0.0016511   0.7630550   1.0342185  )
        18           Mo  tau(  18) = (   0.8315306   0.0950180   1.1999887  )
        19           S   tau(  19) = (   0.6626515   0.1901398   1.3658037  )
        20           S   tau(  20) = (   0.6647289   0.1937136   1.0341563  )
        21           Mo  tau(  21) = (   0.6633447   0.3851424   1.2043119  )
        22           S   tau(  22) = (   0.5001875   0.4745429   1.3638712  )
        23           S   tau(  23) = (   0.4960824   0.4827703   1.0355701  )
        24           Mo  tau(  24) = (   0.4997247   0.6684173   1.1955655  )
        25           S   tau(  25) = (   0.3345334   0.7653183   1.3657201  )
        26           S   tau(  26) = (   0.3304841   0.7654013   1.0341045  )

   Crystallographic axes

     site n.     atom                  positions (cryst. coord.)
         1           Mo  tau(   1) = (  0.2247740  0.1107590  0.6186448  )
         2           S   tau(   2) = (  0.1125345  0.2242045  0.7015774  )
         3           S   tau(   3) = (  0.1126324  0.2202003  0.5312385  )
         4           Mo  tau(   4) = (  0.2246599  0.4458375  0.6141979  )
         5           S   tau(   5) = (  0.1152844  0.5551005  0.7015250  )
         6           S   tau(   6) = (  0.1062814  0.5550572  0.5312514  )
         7           Mo  tau(   7) = (  0.2216365  0.7767325  0.6163735  )
         8           S   tau(   8) = (  0.1062048  0.8829544  0.7014817  )
         9           S   tau(   9) = (  0.1154289  0.8921604  0.5312559  )
        10           Mo  tau(  10) = (  0.5525829  0.1107251  0.6141313  )
        11           S   tau(  11) = (  0.4396760  0.2219735  0.7007794  )
        12           S   tau(  12) = (  0.4491101  0.2224264  0.5321572  )
        13           S   tau(  13) = (  0.4488216  0.5587536  0.7007170  )
        14           S   tau(  14) = (  0.4395933  0.5495180  0.5320253  )
        15           Mo  tau(  15) = (  0.5524883  0.7736692  0.6185405  )
        16           S   tau(  16) = (  0.4433184  0.8921117  0.7014845  )
        17           S   tau(  17) = (  0.4432421  0.8830582  0.5312211  )
        18           Mo  tau(  18) = (  0.8883043  0.1100347  0.6163681  )
        19           S   tau(  19) = (  0.7741105  0.2201010  0.7015382  )
        20           S   tau(  20) = (  0.7782604  0.2242370  0.5311891  )
        21           Mo  tau(  21) = (  0.8876550  0.4457711  0.6185887  )
        22           S   tau(  22) = (  0.7758844  0.5492168  0.7005455  )
        23           S   tau(  23) = (  0.7765318  0.5587378  0.5319154  )
        24           Mo  tau(  24) = (  0.8876177  0.7735812  0.6140962  )
        25           S   tau(  25) = (  0.7781491  0.8857068  0.7014952  )
        26           S   tau(  26) = (  0.7741392  0.8858025  0.5311625  )

     number of k points=   100
                       cart. coord. in units 2pi/alat
        k(    1) = (   0.0000000   0.0000000   0.0000000), wk =   0.0200000
        k(    2) = (   0.0139175  -0.0080355   0.0000000), wk =   0.0200000
        k(    3) = (   0.0278350  -0.0160710   0.0000000), wk =   0.0200000
        k(    4) = (   0.0417525  -0.0241065   0.0000000), wk =   0.0200000
        k(    5) = (   0.0556700  -0.0321420   0.0000000), wk =   0.0200000
        k(    6) = (   0.0695875  -0.0401776   0.0000000), wk =   0.0200000
        k(    7) = (   0.0835049  -0.0482131   0.0000000), wk =   0.0200000
        k(    8) = (   0.0974224  -0.0562486   0.0000000), wk =   0.0200000
        k(    9) = (   0.1113399  -0.0642841   0.0000000), wk =   0.0200000
        k(   10) = (   0.1252574  -0.0723196   0.0000000), wk =   0.0200000
        k(   11) = (   0.1391749  -0.0803551   0.0000000), wk =   0.0200000
        k(   12) = (   0.1530924  -0.0883906   0.0000000), wk =   0.0200000
        k(   13) = (   0.1670099  -0.0964261   0.0000000), wk =   0.0200000
        k(   14) = (   0.1809274  -0.1044616   0.0000000), wk =   0.0200000
        k(   15) = (   0.1948449  -0.1124971   0.0000000), wk =   0.0200000
        k(   16) = (   0.2087624  -0.1205327   0.0000000), wk =   0.0200000
        k(   17) = (   0.2226798  -0.1285682   0.0000000), wk =   0.0200000
        k(   18) = (   0.2365973  -0.1366037   0.0000000), wk =   0.0200000
        k(   19) = (   0.2505148  -0.1446392   0.0000000), wk =   0.0200000
        k(   20) = (   0.2644323  -0.1526747   0.0000000), wk =   0.0200000
        k(   21) = (   0.2783498  -0.1607102   0.0000000), wk =   0.0200000
        k(   22) = (   0.2922673  -0.1687457   0.0000000), wk =   0.0200000
        k(   23) = (   0.3061848  -0.1767812   0.0000000), wk =   0.0200000
        k(   24) = (   0.3201023  -0.1848167   0.0000000), wk =   0.0200000
        k(   25) = (   0.3340198  -0.1928522   0.0000000), wk =   0.0200000
        k(   26) = (   0.3479373  -0.2008878   0.0000000), wk =   0.0200000
        k(   27) = (   0.3618547  -0.2089233   0.0000000), wk =   0.0200000
        k(   28) = (   0.3757722  -0.2169588   0.0000000), wk =   0.0200000
        k(   29) = (   0.3896897  -0.2249943   0.0000000), wk =   0.0200000
        k(   30) = (   0.4036072  -0.2330298   0.0000000), wk =   0.0200000
        k(   31) = (   0.4175247  -0.2410653   0.0000000), wk =   0.0200000
        k(   32) = (   0.4314422  -0.2491008   0.0000000), wk =   0.0200000
        k(   33) = (   0.4453597  -0.2571363   0.0000000), wk =   0.0200000
        k(   34) = (   0.4592772  -0.2651718   0.0000000), wk =   0.0200000
        k(   35) = (   0.4731947  -0.2732073   0.0000000), wk =   0.0200000
        k(   36) = (   0.4871122  -0.2812429   0.0000000), wk =   0.0200000
        k(   37) = (   0.5010296  -0.2892784   0.0000000), wk =   0.0200000
        k(   38) = (   0.4930733  -0.3030584   0.0000000), wk =   0.0200000
        k(   39) = (   0.4851170  -0.3168385   0.0000000), wk =   0.0200000
        k(   40) = (   0.4771607  -0.3306186   0.0000000), wk =   0.0200000
        k(   41) = (   0.4692044  -0.3443986   0.0000000), wk =   0.0200000
        k(   42) = (   0.4612480  -0.3581787   0.0000000), wk =   0.0200000
        k(   43) = (   0.4532917  -0.3719588   0.0000000), wk =   0.0200000
        k(   44) = (   0.4453354  -0.3857389   0.0000000), wk =   0.0200000
        k(   45) = (   0.4373791  -0.3995189   0.0000000), wk =   0.0200000
        k(   46) = (   0.4294227  -0.4132990   0.0000000), wk =   0.0200000
        k(   47) = (   0.4214664  -0.4270791   0.0000000), wk =   0.0200000
        k(   48) = (   0.4135101  -0.4408591   0.0000000), wk =   0.0200000
        k(   49) = (   0.4055538  -0.4546392   0.0000000), wk =   0.0200000
        k(   50) = (   0.3975974  -0.4684193   0.0000000), wk =   0.0200000
        k(   51) = (   0.3896411  -0.4821994   0.0000000), wk =   0.0200000
        k(   52) = (   0.3816848  -0.4959794   0.0000000), wk =   0.0200000
        k(   53) = (   0.3737285  -0.5097595   0.0000000), wk =   0.0200000
        k(   54) = (   0.3657722  -0.5235396   0.0000000), wk =   0.0200000
        k(   55) = (   0.3578158  -0.5373196   0.0000000), wk =   0.0200000
        k(   56) = (   0.3498595  -0.5510997   0.0000000), wk =   0.0200000
        k(   57) = (   0.3419032  -0.5648798   0.0000000), wk =   0.0200000
        k(   58) = (   0.3339469  -0.5786599   0.0000000), wk =   0.0200000
        k(   59) = (   0.3259957  -0.5648822   0.0000000), wk =   0.0200000
        k(   60) = (   0.3180446  -0.5511046   0.0000000), wk =   0.0200000
        k(   61) = (   0.3100935  -0.5373270   0.0000000), wk =   0.0200000
        k(   62) = (   0.3021424  -0.5235494   0.0000000), wk =   0.0200000
        k(   63) = (   0.2941913  -0.5097718   0.0000000), wk =   0.0200000
        k(   64) = (   0.2862402  -0.4959942   0.0000000), wk =   0.0200000
        k(   65) = (   0.2782891  -0.4822165   0.0000000), wk =   0.0200000
        k(   66) = (   0.2703379  -0.4684389   0.0000000), wk =   0.0200000
        k(   67) = (   0.2623868  -0.4546613   0.0000000), wk =   0.0200000
        k(   68) = (   0.2544357  -0.4408837   0.0000000), wk =   0.0200000
        k(   69) = (   0.2464846  -0.4271061   0.0000000), wk =   0.0200000
        k(   70) = (   0.2385335  -0.4133285   0.0000000), wk =   0.0200000
        k(   71) = (   0.2305824  -0.3995509   0.0000000), wk =   0.0200000
        k(   72) = (   0.2226312  -0.3857732   0.0000000), wk =   0.0200000
        k(   73) = (   0.2146801  -0.3719956   0.0000000), wk =   0.0200000
        k(   74) = (   0.2067290  -0.3582180   0.0000000), wk =   0.0200000
        k(   75) = (   0.1987779  -0.3444404   0.0000000), wk =   0.0200000
        k(   76) = (   0.1908268  -0.3306628   0.0000000), wk =   0.0200000
        k(   77) = (   0.1828757  -0.3168852   0.0000000), wk =   0.0200000
        k(   78) = (   0.1749245  -0.3031075   0.0000000), wk =   0.0200000
        k(   79) = (   0.1669734  -0.2893299   0.0000000), wk =   0.0200000
        k(   80) = (   0.1590223  -0.2755523   0.0000000), wk =   0.0200000
        k(   81) = (   0.1510712  -0.2617747   0.0000000), wk =   0.0200000
        k(   82) = (   0.1431201  -0.2479971   0.0000000), wk =   0.0200000
        k(   83) = (   0.1351690  -0.2342195   0.0000000), wk =   0.0200000
        k(   84) = (   0.1272179  -0.2204418   0.0000000), wk =   0.0200000
        k(   85) = (   0.1192667  -0.2066642   0.0000000), wk =   0.0200000
        k(   86) = (   0.1113156  -0.1928866   0.0000000), wk =   0.0200000
        k(   87) = (   0.1033645  -0.1791090   0.0000000), wk =   0.0200000
        k(   88) = (   0.0954134  -0.1653314   0.0000000), wk =   0.0200000
        k(   89) = (   0.0874623  -0.1515538   0.0000000), wk =   0.0200000
        k(   90) = (   0.0795112  -0.1377762   0.0000000), wk =   0.0200000
        k(   91) = (   0.0715600  -0.1239985   0.0000000), wk =   0.0200000
        k(   92) = (   0.0636089  -0.1102209   0.0000000), wk =   0.0200000
        k(   93) = (   0.0556578  -0.0964433   0.0000000), wk =   0.0200000
        k(   94) = (   0.0477067  -0.0826657   0.0000000), wk =   0.0200000
        k(   95) = (   0.0397556  -0.0688881   0.0000000), wk =   0.0200000
        k(   96) = (   0.0318045  -0.0551105   0.0000000), wk =   0.0200000
        k(   97) = (   0.0238533  -0.0413328   0.0000000), wk =   0.0200000
        k(   98) = (   0.0159022  -0.0275552   0.0000000), wk =   0.0200000
        k(   99) = (   0.0079511  -0.0137776   0.0000000), wk =   0.0200000
        k(  100) = (   0.0000000   0.0000000   0.0000000), wk =   0.0200000

                       cryst. coord.
        k(    1) = (   0.0000000   0.0000000   0.0000000), wk =   0.0200000
        k(    2) = (   0.0138889  -0.0138889   0.0000000), wk =   0.0200000
        k(    3) = (   0.0277778  -0.0277778   0.0000000), wk =   0.0200000
        k(    4) = (   0.0416667  -0.0416667   0.0000000), wk =   0.0200000
        k(    5) = (   0.0555556  -0.0555556   0.0000000), wk =   0.0200000
        k(    6) = (   0.0694444  -0.0694444   0.0000000), wk =   0.0200000
        k(    7) = (   0.0833333  -0.0833333   0.0000000), wk =   0.0200000
        k(    8) = (   0.0972222  -0.0972222   0.0000000), wk =   0.0200000
        k(    9) = (   0.1111111  -0.1111111   0.0000000), wk =   0.0200000
        k(   10) = (   0.1250000  -0.1250000   0.0000000), wk =   0.0200000
        k(   11) = (   0.1388889  -0.1388889   0.0000000), wk =   0.0200000
        k(   12) = (   0.1527778  -0.1527778   0.0000000), wk =   0.0200000
        k(   13) = (   0.1666667  -0.1666667   0.0000000), wk =   0.0200000
        k(   14) = (   0.1805556  -0.1805556   0.0000000), wk =   0.0200000
        k(   15) = (   0.1944444  -0.1944444   0.0000000), wk =   0.0200000
        k(   16) = (   0.2083333  -0.2083333   0.0000000), wk =   0.0200000
        k(   17) = (   0.2222222  -0.2222222   0.0000000), wk =   0.0200000
        k(   18) = (   0.2361111  -0.2361111   0.0000000), wk =   0.0200000
        k(   19) = (   0.2500000  -0.2500000   0.0000000), wk =   0.0200000
        k(   20) = (   0.2638889  -0.2638889   0.0000000), wk =   0.0200000
        k(   21) = (   0.2777778  -0.2777778   0.0000000), wk =   0.0200000
        k(   22) = (   0.2916667  -0.2916667   0.0000000), wk =   0.0200000
        k(   23) = (   0.3055556  -0.3055556   0.0000000), wk =   0.0200000
        k(   24) = (   0.3194444  -0.3194444   0.0000000), wk =   0.0200000
        k(   25) = (   0.3333333  -0.3333333   0.0000000), wk =   0.0200000
        k(   26) = (   0.3472222  -0.3472222   0.0000000), wk =   0.0200000
        k(   27) = (   0.3611111  -0.3611111   0.0000000), wk =   0.0200000
        k(   28) = (   0.3750000  -0.3750000   0.0000000), wk =   0.0200000
        k(   29) = (   0.3888889  -0.3888889   0.0000000), wk =   0.0200000
        k(   30) = (   0.4027778  -0.4027778   0.0000000), wk =   0.0200000
        k(   31) = (   0.4166667  -0.4166667   0.0000000), wk =   0.0200000
        k(   32) = (   0.4305556  -0.4305556   0.0000000), wk =   0.0200000
        k(   33) = (   0.4444444  -0.4444444   0.0000000), wk =   0.0200000
        k(   34) = (   0.4583333  -0.4583333   0.0000000), wk =   0.0200000
        k(   35) = (   0.4722222  -0.4722222   0.0000000), wk =   0.0200000
        k(   36) = (   0.4861111  -0.4861111   0.0000000), wk =   0.0200000
        k(   37) = (   0.5000000  -0.5000000   0.0000000), wk =   0.0200000
        k(   38) = (   0.4920614  -0.5079376   0.0000000), wk =   0.0200000
        k(   39) = (   0.4841229  -0.5158752   0.0000000), wk =   0.0200000
        k(   40) = (   0.4761843  -0.5238129   0.0000000), wk =   0.0200000
        k(   41) = (   0.4682457  -0.5317505   0.0000000), wk =   0.0200000
        k(   42) = (   0.4603071  -0.5396881   0.0000000), wk =   0.0200000
        k(   43) = (   0.4523686  -0.5476257   0.0000000), wk =   0.0200000
        k(   44) = (   0.4444300  -0.5555633   0.0000000), wk =   0.0200000
        k(   45) = (   0.4364914  -0.5635010   0.0000000), wk =   0.0200000
        k(   46) = (   0.4285529  -0.5714386   0.0000000), wk =   0.0200000
        k(   47) = (   0.4206143  -0.5793762   0.0000000), wk =   0.0200000
        k(   48) = (   0.4126757  -0.5873138   0.0000000), wk =   0.0200000
        k(   49) = (   0.4047371  -0.5952514   0.0000000), wk =   0.0200000
        k(   50) = (   0.3967986  -0.6031890   0.0000000), wk =   0.0200000
        k(   51) = (   0.3888600  -0.6111267   0.0000000), wk =   0.0200000
        k(   52) = (   0.3809214  -0.6190643   0.0000000), wk =   0.0200000
        k(   53) = (   0.3729829  -0.6270019   0.0000000), wk =   0.0200000
        k(   54) = (   0.3650443  -0.6349395   0.0000000), wk =   0.0200000
        k(   55) = (   0.3571057  -0.6428771   0.0000000), wk =   0.0200000
        k(   56) = (   0.3491671  -0.6508148   0.0000000), wk =   0.0200000
        k(   57) = (   0.3412286  -0.6587524   0.0000000), wk =   0.0200000
        k(   58) = (   0.3332900  -0.6666900   0.0000000), wk =   0.0200000
        k(   59) = (   0.3253545  -0.6508164   0.0000000), wk =   0.0200000
        k(   60) = (   0.3174190  -0.6349429   0.0000000), wk =   0.0200000
        k(   61) = (   0.3094836  -0.6190693   0.0000000), wk =   0.0200000
        k(   62) = (   0.3015481  -0.6031957   0.0000000), wk =   0.0200000
        k(   63) = (   0.2936126  -0.5873221   0.0000000), wk =   0.0200000
        k(   64) = (   0.2856771  -0.5714486   0.0000000), wk =   0.0200000
        k(   65) = (   0.2777417  -0.5555750   0.0000000), wk =   0.0200000
        k(   66) = (   0.2698062  -0.5397014   0.0000000), wk =   0.0200000
        k(   67) = (   0.2618707  -0.5238279   0.0000000), wk =   0.0200000
        k(   68) = (   0.2539352  -0.5079543   0.0000000), wk =   0.0200000
        k(   69) = (   0.2459998  -0.4920807   0.0000000), wk =   0.0200000
        k(   70) = (   0.2380643  -0.4762071   0.0000000), wk =   0.0200000
        k(   71) = (   0.2301288  -0.4603336   0.0000000), wk =   0.0200000
        k(   72) = (   0.2221933  -0.4444600   0.0000000), wk =   0.0200000
        k(   73) = (   0.2142579  -0.4285864   0.0000000), wk =   0.0200000
        k(   74) = (   0.2063224  -0.4127129   0.0000000), wk =   0.0200000
        k(   75) = (   0.1983869  -0.3968393   0.0000000), wk =   0.0200000
        k(   76) = (   0.1904514  -0.3809657   0.0000000), wk =   0.0200000
        k(   77) = (   0.1825160  -0.3650921   0.0000000), wk =   0.0200000
        k(   78) = (   0.1745805  -0.3492186   0.0000000), wk =   0.0200000
        k(   79) = (   0.1666450  -0.3333450   0.0000000), wk =   0.0200000
        k(   80) = (   0.1587095  -0.3174714   0.0000000), wk =   0.0200000
        k(   81) = (   0.1507740  -0.3015979   0.0000000), wk =   0.0200000
        k(   82) = (   0.1428386  -0.2857243   0.0000000), wk =   0.0200000
        k(   83) = (   0.1349031  -0.2698507   0.0000000), wk =   0.0200000
        k(   84) = (   0.1269676  -0.2539771   0.0000000), wk =   0.0200000
        k(   85) = (   0.1190321  -0.2381036   0.0000000), wk =   0.0200000
        k(   86) = (   0.1110967  -0.2222300   0.0000000), wk =   0.0200000
        k(   87) = (   0.1031612  -0.2063564   0.0000000), wk =   0.0200000
        k(   88) = (   0.0952257  -0.1904829   0.0000000), wk =   0.0200000
        k(   89) = (   0.0872902  -0.1746093   0.0000000), wk =   0.0200000
        k(   90) = (   0.0793548  -0.1587357   0.0000000), wk =   0.0200000
        k(   91) = (   0.0714193  -0.1428621   0.0000000), wk =   0.0200000
        k(   92) = (   0.0634838  -0.1269886   0.0000000), wk =   0.0200000
        k(   93) = (   0.0555483  -0.1111150   0.0000000), wk =   0.0200000
        k(   94) = (   0.0476129  -0.0952414   0.0000000), wk =   0.0200000
        k(   95) = (   0.0396774  -0.0793679   0.0000000), wk =   0.0200000
        k(   96) = (   0.0317419  -0.0634943   0.0000000), wk =   0.0200000
        k(   97) = (   0.0238064  -0.0476207   0.0000000), wk =   0.0200000
        k(   98) = (   0.0158710  -0.0317471   0.0000000), wk =   0.0200000
        k(   99) = (   0.0079355  -0.0158736   0.0000000), wk =   0.0200000
        k(  100) = (   0.0000000   0.0000000   0.0000000), wk =   0.0200000

     Dense  grid:  2261433 G-vectors     FFT dimensions: ( 144, 144, 270)

     Smooth grid:   571933 G-vectors     FFT dimensions: (  90,  90, 180)

     Dynamical RAM for                 wfc:       6.82 MB

     Dynamical RAM for     wfc (w. buffer):       6.82 MB

     Dynamical RAM for           str. fact:       4.31 MB

     Dynamical RAM for           local pot:       0.00 MB

     Dynamical RAM for          nlocal pot:      20.59 MB

     Dynamical RAM for                qrad:       4.39 MB

     Dynamical RAM for          rho,v,vnew:      14.54 MB

     Dynamical RAM for           G-vectors:       8.36 MB

     Dynamical RAM for          h,s,v(r/c):       7.32 MB

     Dynamical RAM for          <psi|beta>:       0.46 MB

     Dynamical RAM for                 psi:      27.28 MB

     Dynamical RAM for                hpsi:      27.28 MB

     Dynamical RAM for      wfcinit/wfcrot:      60.70 MB

     Estimated static dynamical RAM per process >      78.94 MB

     Estimated max dynamical RAM per process >     141.27 MB

     Estimated total dynamical RAM >       2.21 GB

     The potential is recalculated from file :
     ./out/3x3_MoS2_mo.save/charge-density

     Starting wfcs are  416 randomized atomic wfcs

     Band Structure Calculation
     Davidson diagonalization with overlap

     Computing kpt #:     1  of   100
     total cpu time spent up to now is       65.3 secs

     Computing kpt #:     2  of   100
     total cpu time spent up to now is      125.3 secs

     Computing kpt #:     3  of   100
     total cpu time spent up to now is      181.7 secs

     Computing kpt #:     4  of   100
     total cpu time spent up to now is      239.2 secs

     Computing kpt #:     5  of   100
     total cpu time spent up to now is      297.6 secs

     Computing kpt #:     6  of   100
     total cpu time spent up to now is      354.1 secs

     Computing kpt #:     7  of   100
     total cpu time spent up to now is      410.0 secs

     Computing kpt #:     8  of   100
     total cpu time spent up to now is      466.2 secs

     Computing kpt #:     9  of   100
     total cpu time spent up to now is      523.0 secs

     Computing kpt #:    10  of   100
     total cpu time spent up to now is      580.4 secs

     Computing kpt #:    11  of   100
     total cpu time spent up to now is      639.1 secs

     Computing kpt #:    12  of   100
     total cpu time spent up to now is      696.3 secs

     Computing kpt #:    13  of   100
     total cpu time spent up to now is      748.6 secs

     Computing kpt #:    14  of   100
     total cpu time spent up to now is      800.8 secs

     Computing kpt #:    15  of   100
     total cpu time spent up to now is      853.5 secs

     Computing kpt #:    16  of   100
     total cpu time spent up to now is      905.8 secs

     Computing kpt #:    17  of   100
     total cpu time spent up to now is     1006.8 secs

     Computing kpt #:    18  of   100
     total cpu time spent up to now is     1119.2 secs

     Computing kpt #:    19  of   100
     total cpu time spent up to now is     1235.4 secs

     Computing kpt #:    20  of   100
     total cpu time spent up to now is     1349.6 secs

     Computing kpt #:    21  of   100
     total cpu time spent up to now is     1466.1 secs

     Computing kpt #:    22  of   100
     total cpu time spent up to now is     1649.2 secs

     Computing kpt #:    23  of   100
     total cpu time spent up to now is     1850.5 secs

     Computing kpt #:    24  of   100
     total cpu time spent up to now is     2054.0 secs

     Computing kpt #:    25  of   100
     total cpu time spent up to now is     2264.3 secs

     Computing kpt #:    26  of   100
     total cpu time spent up to now is     2493.4 secs

     Computing kpt #:    27  of   100
     total cpu time spent up to now is     2725.1 secs

     Computing kpt #:    28  of   100
     total cpu time spent up to now is     2859.3 secs

     Computing kpt #:    29  of   100
     total cpu time spent up to now is     2967.9 secs

     Computing kpt #:    30  of   100
     total cpu time spent up to now is     3086.9 secs

     Computing kpt #:    31  of   100
     total cpu time spent up to now is     3215.2 secs

     Computing kpt #:    32  of   100
     total cpu time spent up to now is     3323.8 secs

     Computing kpt #:    33  of   100
     total cpu time spent up to now is     3374.9 secs

     Computing kpt #:    34  of   100
     total cpu time spent up to now is     3422.0 secs

     Computing kpt #:    35  of   100
     total cpu time spent up to now is     3469.4 secs

     Computing kpt #:    36  of   100
     total cpu time spent up to now is     3516.4 secs

     Computing kpt #:    37  of   100
     total cpu time spent up to now is     3563.4 secs

     Computing kpt #:    38  of   100
     total cpu time spent up to now is     3610.6 secs

     Computing kpt #:    39  of   100
     total cpu time spent up to now is     3657.6 secs

     Computing kpt #:    40  of   100
     total cpu time spent up to now is     3705.0 secs

     Computing kpt #:    41  of   100
     total cpu time spent up to now is     3752.5 secs

     Computing kpt #:    42  of   100
     total cpu time spent up to now is     3799.5 secs

     Computing kpt #:    43  of   100
     total cpu time spent up to now is     3847.4 secs

     Computing kpt #:    44  of   100
     total cpu time spent up to now is     3895.1 secs

     Computing kpt #:    45  of   100
     total cpu time spent up to now is     3942.9 secs

     Computing kpt #:    46  of   100
     total cpu time spent up to now is     3989.5 secs

     Computing kpt #:    47  of   100
     total cpu time spent up to now is     4036.4 secs

     Computing kpt #:    48  of   100
     total cpu time spent up to now is     4083.6 secs

     Computing kpt #:    49  of   100
     total cpu time spent up to now is     4130.6 secs

     Computing kpt #:    50  of   100
     total cpu time spent up to now is     4178.0 secs

     Computing kpt #:    51  of   100
     total cpu time spent up to now is     4224.9 secs

     Computing kpt #:    52  of   100
     total cpu time spent up to now is     4271.9 secs

     Computing kpt #:    53  of   100
     total cpu time spent up to now is     4319.0 secs

     Computing kpt #:    54  of   100
     total cpu time spent up to now is     4366.5 secs

     Computing kpt #:    55  of   100
     total cpu time spent up to now is     4413.8 secs

     Computing kpt #:    56  of   100
     total cpu time spent up to now is     4461.3 secs

     Computing kpt #:    57  of   100
     total cpu time spent up to now is     4509.0 secs

     Computing kpt #:    58  of   100
     total cpu time spent up to now is     4556.3 secs

     Computing kpt #:    59  of   100
     total cpu time spent up to now is     4603.5 secs

     Computing kpt #:    60  of   100
     total cpu time spent up to now is     4650.8 secs

     Computing kpt #:    61  of   100
     total cpu time spent up to now is     4698.4 secs

     Computing kpt #:    62  of   100
     total cpu time spent up to now is     4745.6 secs

     Computing kpt #:    63  of   100
     total cpu time spent up to now is     4793.5 secs

     Computing kpt #:    64  of   100
     total cpu time spent up to now is     4840.8 secs

     Computing kpt #:    65  of   100
     total cpu time spent up to now is     4888.5 secs

     Computing kpt #:    66  of   100
     total cpu time spent up to now is     4935.7 secs

     Computing kpt #:    67  of   100
     total cpu time spent up to now is     4983.1 secs

     Computing kpt #:    68  of   100
     total cpu time spent up to now is     5030.6 secs

     Computing kpt #:    69  of   100
     total cpu time spent up to now is     5077.6 secs

     Computing kpt #:    70  of   100
     total cpu time spent up to now is     5125.9 secs

     Computing kpt #:    71  of   100
     total cpu time spent up to now is     5174.3 secs

     Computing kpt #:    72  of   100
     total cpu time spent up to now is     5222.7 secs

     Computing kpt #:    73  of   100
     total cpu time spent up to now is     5276.4 secs

     Computing kpt #:    74  of   100
     total cpu time spent up to now is     5325.4 secs

     Computing kpt #:    75  of   100
     total cpu time spent up to now is     5374.6 secs

     Computing kpt #:    76  of   100
     total cpu time spent up to now is     5423.7 secs

     Computing kpt #:    77  of   100
     total cpu time spent up to now is     5475.3 secs

     Computing kpt #:    78  of   100
     total cpu time spent up to now is     5535.6 secs

     Computing kpt #:    79  of   100
     total cpu time spent up to now is     5591.0 secs

     Computing kpt #:    80  of   100
     total cpu time spent up to now is     5640.1 secs

     Computing kpt #:    81  of   100
     total cpu time spent up to now is     5689.8 secs

     Computing kpt #:    82  of   100
     total cpu time spent up to now is     5739.7 secs

     Computing kpt #:    83  of   100
     total cpu time spent up to now is     5788.9 secs

     Computing kpt #:    84  of   100
     total cpu time spent up to now is     5837.7 secs

     Computing kpt #:    85  of   100
     total cpu time spent up to now is     5886.9 secs

     Computing kpt #:    86  of   100
     total cpu time spent up to now is     5936.1 secs

     Computing kpt #:    87  of   100
     total cpu time spent up to now is     5989.9 secs

     Computing kpt #:    88  of   100
     total cpu time spent up to now is     6040.0 secs

     Computing kpt #:    89  of   100
     total cpu time spent up to now is     6092.8 secs

     Computing kpt #:    90  of   100
     total cpu time spent up to now is     6145.5 secs

     Computing kpt #:    91  of   100
     total cpu time spent up to now is     6198.4 secs

     Computing kpt #:    92  of   100
     total cpu time spent up to now is     6252.0 secs

     Computing kpt #:    93  of   100
     total cpu time spent up to now is     6304.6 secs

     Computing kpt #:    94  of   100
     total cpu time spent up to now is     6357.3 secs

     Computing kpt #:    95  of   100
     total cpu time spent up to now is     6409.7 secs

     Computing kpt #:    96  of   100
     total cpu time spent up to now is     6462.4 secs

     Computing kpt #:    97  of   100
     total cpu time spent up to now is     6514.9 secs

     Computing kpt #:    98  of   100
     total cpu time spent up to now is     6567.6 secs

     Computing kpt #:    99  of   100
     total cpu time spent up to now is     6620.3 secs

     Computing kpt #:   100  of   100
     total cpu time spent up to now is     6673.3 secs

     ethr =  6.41E-08,  avg # of iterations = 19.2

     total cpu time spent up to now is     6673.3 secs

     End of band structure calculation

          k = 0.0000 0.0000 0.0000 ( 71573 PWs)   bands (ev):

   -15.7613 -14.5604 -14.5355 -14.5339 -14.5287 -14.2210 -14.2206 -13.8743
   -13.8730 -13.8638 -13.7717 -13.6011 -13.6005 -13.3439 -13.1727 -13.1715
   -12.7692 -12.7668  -7.2246  -6.9681  -6.9670  -6.9360  -6.9351  -6.9290
    -6.7239  -6.5430  -6.5413  -6.2486  -5.9308  -5.9113  -5.8463  -5.8441
    -5.7344  -5.7340  -5.6840  -5.6180  -5.6176  -5.4328  -5.4311  -5.3195
    -5.3172  -5.1447  -4.7632  -4.7608  -4.7262  -4.6093  -4.3730  -4.3189
    -4.3180  -4.3050  -4.1933  -3.8105  -3.8083  -3.7271  -3.7252  -3.3818
    -3.3809  -3.3643  -3.1502  -3.0795  -3.0791  -2.9099  -2.9089  -2.8394
    -2.6862  -2.6837  -2.6136  -2.5232  -2.5222  -2.4940  -2.4108  -2.4091
    -2.3859  -1.8851  -1.8606  -1.8591  -0.8574  -0.8558  -0.7591  -0.4402
    -0.4400   0.6338   0.6971   1.0089   1.0213   1.0229   1.0955   1.1131
     1.1161   1.1840   1.2750   1.2775   1.7544   1.7582   1.8997   1.9008
     2.0372   2.0378   2.2560   2.2808

          k = 0.0139-0.0080 0.0000 ( 71543 PWs)   bands (ev):

   -15.7610 -14.5602 -14.5498 -14.5356 -14.5145 -14.2206 -14.2199 -13.8797
   -13.8741 -13.8577 -13.7710 -13.6010 -13.6005 -13.3436 -13.1729 -13.1716
   -12.7692 -12.7669  -7.2244  -6.9678  -6.9667  -6.9487  -6.9358  -6.9163
    -6.7247  -6.5428  -6.5408  -6.2513  -5.9387  -5.9155  -5.8403  -5.8393
    -5.7396  -5.7338  -5.6842  -5.6162  -5.6097  -5.4327  -5.4307  -5.3189
    -5.3166  -5.1441  -4.7631  -4.7605  -4.7258  -4.6099  -4.3746  -4.3198
    -4.3179  -4.3056  -4.1932  -3.8109  -3.8080  -3.7271  -3.7250  -3.3933
    -3.3813  -3.3535  -3.1514  -3.0782  -3.0770  -2.9088  -2.9085  -2.8414
    -2.6877  -2.6852  -2.6133  -2.5269  -2.5206  -2.4916  -2.4098  -2.4075
    -2.3853  -1.8849  -1.8608  -1.8587  -0.8582  -0.8562  -0.7585  -0.4411
    -0.4402   0.6349   0.6976   1.0077   1.0197   1.0221   1.0917   1.1153
     1.1212   1.1835   1.2756   1.2788   1.7540   1.7586   1.8995   1.9005
     2.0365   2.0372   2.2489   2.2798

          k = 0.0278-0.0161 0.0000 ( 71557 PWs)   bands (ev):

   -15.7601 -14.5687 -14.5597 -14.5370 -14.4990 -14.2193 -14.2179 -13.8896
   -13.8744 -13.8489 -13.7689 -13.6010 -13.6003 -13.3427 -13.1734 -13.1722
   -12.7694 -12.7671  -7.2238  -6.9689  -6.9667  -6.9619  -6.9366  -6.9014
    -6.7270  -6.5422  -6.5393  -6.2594  -5.9574  -5.9259  -5.8285  -5.8271
    -5.7534  -5.7323  -5.6819  -5.6120  -5.5897  -5.4324  -5.4295  -5.3175
    -5.3149  -5.1422  -4.7630  -4.7597  -4.7246  -4.6115  -4.3791  -4.3225
    -4.3178  -4.3074  -4.1931  -3.8123  -3.8072  -3.7274  -3.7244  -3.4115
    -3.3811  -3.3388  -3.1547  -3.0750  -3.0702  -2.9074  -2.9055  -2.8472
    -2.6919  -2.6896  -2.6125  -2.5355  -2.5157  -2.4862  -2.4104  -2.3998
    -2.3834  -1.8842  -1.8615  -1.8576  -0.8606  -0.8574  -0.7568  -0.4439
    -0.4409   0.6380   0.6989   1.0041   1.0149   1.0203   1.0857   1.1203
     1.1318   1.1821   1.2771   1.2826   1.7528   1.7600   1.8987   1.8994
     2.0345   2.0356   2.2352   2.2766

          k = 0.0418-0.0241 0.0000 ( 71563 PWs)   bands (ev):

   -15.7585 -14.5885 -14.5588 -14.5394 -14.4850 -14.2170 -14.2145 -13.9001
   -13.8750 -13.8401 -13.7656 -13.6014 -13.5994 -13.3411 -13.1742 -13.1730
   -12.7696 -12.7675  -7.2228  -6.9834  -6.9653  -6.9621  -6.9380  -6.8872
    -6.7307  -6.5415  -6.5369  -6.2721  -5.9809  -5.9398  -5.8171  -5.8156
    -5.7685  -5.7276  -5.6752  -5.6056  -5.5644  -5.4321  -5.4272  -5.3152
    -5.3119  -5.1390  -4.7628  -4.7583  -4.7227  -4.6141  -4.3862  -4.3269
    -4.3182  -4.3104  -4.1927  -3.8148  -3.8057  -3.7280  -3.7233  -3.4304
    -3.3807  -3.3257  -3.1587  -3.0701  -3.0600  -2.9053  -2.9008  -2.8559
    -2.6988  -2.6968  -2.6113  -2.5463  -2.5079  -2.4799  -2.4124  -2.3879
    -2.3795  -1.8830  -1.8627  -1.8557  -0.8647  -0.8593  -0.7541  -0.4484
    -0.4420   0.6431   0.7012   0.9983   1.0071   1.0181   1.0811   1.1276
     1.1436   1.1804   1.2797   1.2885   1.7507   1.7623   1.8972   1.8978
     2.0311   2.0330   2.2195   2.2714

          k = 0.0557-0.0321 0.0000 ( 71561 PWs)   bands (ev):

   -15.7564 -14.6091 -14.5575 -14.5426 -14.4726 -14.2137 -14.2098 -13.9110
   -13.8758 -13.8317 -13.7609 -13.6019 -13.5983 -13.3390 -13.1754 -13.1741
   -12.7699 -12.7681  -7.2215  -7.0003  -6.9634  -6.9593  -6.9397  -6.8738
    -6.7353  -6.5406  -6.5340  -6.2884  -6.0060  -5.9558  -5.8192  -5.8097
    -5.7695  -5.7176  -5.6650  -5.5972  -5.5366  -5.4317  -5.4240  -5.3123
    -5.3074  -5.1345  -4.7624  -4.7562  -4.7202  -4.6177  -4.3953  -4.3332
    -4.3196  -4.3143  -4.1920  -3.8184  -3.8036  -3.7294  -3.7217  -3.4489
    -3.3801  -3.3151  -3.1624  -3.0636  -3.0473  -2.9021  -2.8971  -2.8648
    -2.7079  -2.7062  -2.6100  -2.5580  -2.4978  -2.4728  -2.4157  -2.3737
    -2.3732  -1.8816  -1.8640  -1.8531  -0.8704  -0.8618  -0.7504  -0.4547
    -0.4435   0.6501   0.7043   0.9908   0.9971   1.0156   1.0785   1.1364
     1.1554   1.1789   1.2838   1.2960   1.7478   1.7654   1.8948   1.8956
     2.0265   2.0298   2.2025   2.2642

          k = 0.0696-0.0402 0.0000 ( 71581 PWs)   bands (ev):

   -15.7537 -14.6304 -14.5560 -14.5466 -14.4619 -14.2092 -14.2041 -13.9221
   -13.8767 -13.8238 -13.7551 -13.6024 -13.5968 -13.3364 -13.1770 -13.1755
   -12.7703 -12.7687  -7.2199  -7.0175  -6.9615  -6.9556  -6.9414  -6.8615
    -6.7404  -6.5398  -6.5308  -6.3073  -6.0317  -5.9731  -5.8374  -5.8100
    -5.7536  -5.7027  -5.6524  -5.5874  -5.5077  -5.4312  -5.4197  -5.3088
    -5.3012  -5.1285  -4.7616  -4.7534  -4.7170  -4.6222  -4.4059  -4.3412
    -4.3224  -4.3192  -4.1910  -3.8232  -3.8010  -3.7321  -3.7195  -3.4662
    -3.3792  -3.3077  -3.1647  -3.0561  -3.0328  -2.9010  -2.8976  -2.8668
    -2.7194  -2.7176  -2.6086  -2.5702  -2.4859  -2.4648  -2.4201  -2.3662
    -2.3568  -1.8803  -1.8654  -1.8499  -0.8777  -0.8647  -0.7460  -0.4626
    -0.4454   0.6589   0.7082   0.9822   0.9856   1.0129   1.0773   1.1457
     1.1665   1.1784   1.2894   1.3046   1.7441   1.7693   1.8917   1.8925
     2.0207   2.0263   2.1846   2.2549

          k = 0.0835-0.0482 0.0000 ( 71581 PWs)   bands (ev):

   -15.7504 -14.6522 -14.5544 -14.5509 -14.4530 -14.2035 -14.1973 -13.9334
   -13.8779 -13.8164 -13.7483 -13.6028 -13.5949 -13.3334 -13.1790 -13.1770
   -12.7710 -12.7693  -7.2181  -7.0347  -6.9601  -6.9509  -6.9422  -6.8507
    -6.7454  -6.5392  -6.5278  -6.3280  -6.0572  -5.9916  -5.8602  -5.8149
    -5.7322  -5.6848  -5.6379  -5.5765  -5.4783  -5.4306  -5.4144  -5.3050
    -5.2933  -5.1210  -4.7602  -4.7499  -4.7132  -4.6276  -4.4179  -4.3509
    -4.3268  -4.3249  -4.1894  -3.8293  -3.7979  -3.7365  -3.7166  -3.4815
    -3.3781  -3.3037  -3.1652  -3.0480  -3.0170  -2.9141  -2.8917  -2.8598
    -2.7328  -2.7303  -2.6071  -2.5827  -2.4733  -2.4559  -2.4248  -2.3574
    -2.3393  -1.8795  -1.8661  -1.8462  -0.8865  -0.8679  -0.7409  -0.4721
    -0.4476   0.6693   0.7129   0.9723   0.9739   1.0100   1.0774   1.1545
     1.1762   1.1801   1.2968   1.3140   1.7396   1.7739   1.8875   1.8885
     2.0137   2.0228   2.1659   2.2436

          k = 0.0974-0.0562 0.0000 ( 71609 PWs)   bands (ev):

   -15.7464 -14.6746 -14.5570 -14.5512 -14.4461 -14.1965 -14.1895 -13.9449
   -13.8792 -13.8096 -13.7405 -13.6030 -13.5928 -13.3300 -13.1815 -13.1788
   -12.7719 -12.7698  -7.2163  -7.0517  -6.9603  -6.9455  -6.9412  -6.8418
    -6.7497  -6.5390  -6.5252  -6.3494  -6.0821  -6.0111  -5.8839  -5.8226
    -5.7093  -5.6658  -5.6223  -5.5648  -5.4489  -5.4297  -5.4078  -5.3008
    -5.2835  -5.1120  -4.7583  -4.7456  -4.7088  -4.6336  -4.4309  -4.3620
    -4.3327  -4.3315  -4.1875  -3.8366  -3.7945  -3.7433  -3.7129  -3.4942
    -3.3766  -3.3030  -3.1636  -3.0400  -3.0011  -2.9309  -2.8839  -2.8489
    -2.7477  -2.7443  -2.6056  -2.5957  -2.4615  -2.4459  -2.4281  -2.3476
    -2.3211  -1.8800  -1.8653  -1.8421  -0.8969  -0.8714  -0.7353  -0.4829
    -0.4501   0.6812   0.7182   0.9600   0.9640   1.0069   1.0783   1.1612
     1.1837   1.1861   1.3063   1.3240   1.7343   1.7789   1.8814   1.8844
     2.0056   2.0199   2.1465   2.2304

          k = 0.1113-0.0643 0.0000 ( 71599 PWs)   bands (ev):

   -15.7419 -14.6974 -14.5626 -14.5487 -14.4409 -14.1882 -14.1810 -13.9565
   -13.8806 -13.8035 -13.7320 -13.6030 -13.5904 -13.3263 -13.1842 -13.1808
   -12.7730 -12.7703  -7.2146  -7.0680  -6.9626  -6.9394  -6.9379  -6.8355
    -6.7526  -6.5399  -6.5234  -6.3705  -6.1061  -6.0313  -5.9076  -5.8321
    -5.6861  -5.6468  -5.6058  -5.5525  -5.4287  -5.4206  -5.3993  -5.2965
    -5.2716  -5.1016  -4.7556  -4.7403  -4.7038  -4.6402  -4.4449  -4.3744
    -4.3401  -4.3388  -4.1853  -3.8451  -3.7907  -3.7530  -3.7086  -3.5036
    -3.3747  -3.3053  -3.1601  -3.0327  -2.9886  -2.9455  -2.8743  -2.8368
    -2.7634  -2.7590  -2.6095  -2.6042  -2.4541  -2.4347  -2.4262  -2.3372
    -2.3026  -1.8820  -1.8630  -1.8378  -0.9087  -0.8750  -0.7292  -0.4949
    -0.4527   0.6944   0.7240   0.9474   0.9545   1.0038   1.0797   1.1655
     1.1914   1.1940   1.3176   1.3342   1.7282   1.7841   1.8735   1.8798
     1.9964   2.0178   2.1267   2.2155

          k = 0.1253-0.0723 0.0000 ( 71587 PWs)   bands (ev):

   -15.7368 -14.7205 -14.5686 -14.5457 -14.4375 -14.1786 -14.1718 -13.9682
   -13.8821 -13.7981 -13.7227 -13.6027 -13.5878 -13.3223 -13.1873 -13.1830
   -12.7743 -12.7708  -7.2136  -7.0834  -6.9662  -6.9334  -6.9320  -6.8322
    -6.7533  -6.5423  -6.5227  -6.3906  -6.1289  -6.0522  -5.9309  -5.8428
    -5.6633  -5.6286  -5.5888  -5.5398  -5.4273  -5.3991  -5.3835  -5.2921
    -5.2574  -5.0898  -4.7521  -4.7340  -4.6982  -4.6470  -4.4595  -4.3880
    -4.3488  -4.3468  -4.1828  -3.8549  -3.7871  -3.7653  -3.7036  -3.5094
    -3.3724  -3.3100  -3.1551  -3.0264  -2.9913  -2.9454  -2.8629  -2.8260
    -2.7791  -2.7727  -2.6239  -2.6037  -2.4533  -2.4225  -2.4165  -2.3263
    -2.2840  -1.8850  -1.8597  -1.8332  -0.9220  -0.8787  -0.7229  -0.5081
    -0.4554   0.7086   0.7303   0.9349   0.9451   1.0009   1.0817   1.1689
     1.1979   1.2041   1.3307   1.3446   1.7214   1.7888   1.8643   1.8750
     1.9860   2.0168   2.1068   2.1991

          k = 0.1392-0.0804 0.0000 ( 71589 PWs)   bands (ev):

   -15.7310 -14.7440 -14.5749 -14.5424 -14.4357 -14.1680 -14.1621 -13.9800
   -13.8838 -13.7935 -13.7130 -13.6019 -13.5850 -13.3182 -13.1907 -13.1853
   -12.7758 -12.7713  -7.2137  -7.0972  -6.9706  -6.9271  -6.9245  -6.8320
    -6.7515  -6.5470  -6.5232  -6.4084  -6.1503  -6.0736  -5.9537  -5.8544
    -5.6416  -5.6114  -5.5716  -5.5266  -5.4256  -5.3874  -5.3573  -5.2879
    -5.2408  -5.0770  -4.7479  -4.7266  -4.6919  -4.6537  -4.4747  -4.4025
    -4.3586  -4.3555  -4.1803  -3.8658  -3.7882  -3.7757  -3.6980  -3.5117
    -3.3697  -3.3163  -3.1492  -3.0217  -3.0089  -2.9307  -2.8512  -2.8219
    -2.7931  -2.7804  -2.6394  -2.6041  -2.4549  -2.4093  -2.4030  -2.3152
    -2.2655  -1.8885  -1.8556  -1.8285  -0.9366  -0.8825  -0.7162  -0.5222
    -0.4581   0.7235   0.7368   0.9229   0.9361   0.9984   1.0840   1.1723
     1.2030   1.2156   1.3452   1.3550   1.7139   1.7917   1.8546   1.8698
     1.9745   2.0169   2.0871   2.1815

          k = 0.1531-0.0884 0.0000 ( 71589 PWs)   bands (ev):

   -15.7248 -14.7677 -14.5814 -14.5387 -14.4353 -14.1566 -14.1519 -13.9918
   -13.8855 -13.7896 -13.7028 -13.6007 -13.5819 -13.3140 -13.1944 -13.1878
   -12.7775 -12.7717  -7.2156  -7.1087  -6.9755  -6.9200  -6.9163  -6.8344
    -6.7477  -6.5549  -6.5251  -6.4230  -6.1701  -6.0953  -5.9758  -5.8666
    -5.6211  -5.5955  -5.5542  -5.5132  -5.4233  -5.3774  -5.3292  -5.2837
    -5.2220  -5.0636  -4.7433  -4.7179  -4.6856  -4.6590  -4.4902  -4.4179
    -4.3693  -4.3647  -4.1779  -3.8779  -3.8040  -3.7740  -3.6917  -3.5109
    -3.3665  -3.3238  -3.1430  -3.0306  -3.0184  -2.9120  -2.8444  -2.8309
    -2.8004  -2.7761  -2.6559  -2.6059  -2.4556  -2.3951  -2.3884  -2.3040
    -2.2472  -1.8923  -1.8512  -1.8239  -0.9524  -0.8862  -0.7095  -0.5370
    -0.4607   0.7388   0.7434   0.9116   0.9277   0.9963   1.0866   1.1762
     1.2074   1.2276   1.3607   1.3654   1.7057   1.7906   1.8469   1.8641
     1.9617   2.0180   2.0681   2.1631

          k = 0.1670-0.0964 0.0000 ( 71563 PWs)   bands (ev):

   -15.7179 -14.7916 -14.5881 -14.5346 -14.4360 -14.1445 -14.1413 -14.0035
   -13.8872 -13.7864 -13.6924 -13.5989 -13.5787 -13.3098 -13.1984 -13.1904
   -12.7792 -12.7722  -7.2200  -7.1170  -6.9806  -6.9121  -6.9076  -6.8384
    -6.7427  -6.5663  -6.5286  -6.4337  -6.1883  -6.1172  -5.9974  -5.8793
    -5.6023  -5.5811  -5.5367  -5.4996  -5.4204  -5.3673  -5.3011  -5.2796
    -5.2010  -5.0501  -4.7388  -4.7077  -4.6819  -4.6595  -4.5059  -4.4340
    -4.3807  -4.3744  -4.1756  -3.8910  -3.8251  -3.7691  -3.6848  -3.5075
    -3.3629  -3.3318  -3.1372  -3.0530  -3.0168  -2.8927  -2.8504  -2.8471
    -2.7932  -2.7652  -2.6736  -2.6091  -2.4541  -2.3800  -2.3734  -2.2928
    -2.2292  -1.8961  -1.8465  -1.8193  -0.9696  -0.8899  -0.7027  -0.5526
    -0.4631   0.7500   0.7541   0.9013   0.9200   0.9950   1.0894   1.1807
     1.2115   1.2397   1.3750   1.3776   1.6970   1.7828   1.8436   1.8579
     1.9479   2.0196   2.0501   2.1446

          k = 0.1809-0.1045 0.0000 ( 71555 PWs)   bands (ev):

   -15.7104 -14.8157 -14.5948 -14.5302 -14.4377 -14.1329 -14.1297 -14.0150
   -13.8891 -13.7841 -13.6818 -13.5965 -13.5754 -13.3056 -13.2027 -13.1931
   -12.7811 -12.7726  -7.2275  -7.1217  -6.9860  -6.9035  -6.8989  -6.8430
    -6.7370  -6.5812  -6.5337  -6.4407  -6.2048  -6.1391  -6.0185  -5.8926
    -5.5853  -5.5683  -5.5190  -5.4857  -5.4169  -5.3570  -5.2765  -5.2722
    -5.1784  -5.0368  -4.7355  -4.6958  -4.6832  -4.6516  -4.5213  -4.4505
    -4.3927  -4.3845  -4.1736  -3.9050  -3.8486  -3.7636  -3.6773  -3.5021
    -3.3589  -3.3400  -3.1335  -3.0740  -3.0166  -2.8790  -2.8646  -2.8604
    -2.7764  -2.7532  -2.6923  -2.6133  -2.4500  -2.3641  -2.3585  -2.2816
    -2.2117  -1.9000  -1.8415  -1.8148  -0.9878  -0.8934  -0.6959  -0.5686
    -0.4653   0.7561   0.7688   0.8920   0.9136   0.9945   1.0924   1.1858
     1.2155   1.2517   1.3851   1.3944   1.6878   1.7683   1.8445   1.8508
     1.9332   2.0214   2.0334   2.1269

          k = 0.1948-0.1125 0.0000 ( 71549 PWs)   bands (ev):

   -15.7024 -14.8398 -14.6015 -14.5255 -14.4401 -14.1224 -14.1167 -14.0260
   -13.8909 -13.7824 -13.6712 -13.5936 -13.5719 -13.3015 -13.2071 -13.1959
   -12.7831 -12.7730  -7.2378  -7.1229  -6.9913  -6.8943  -6.8908  -6.8470
    -6.7313  -6.5989  -6.5403  -6.4445  -6.2196  -6.1608  -6.0391  -5.9062
    -5.5702  -5.5571  -5.5010  -5.4717  -5.4125  -5.3464  -5.2718  -5.2450
    -5.1545  -5.0242  -4.7344  -4.6858  -4.6819  -4.6381  -4.5361  -4.4675
    -4.4051  -4.3950  -4.1718  -3.9198  -3.8737  -3.7577  -3.6693  -3.4952
    -3.3546  -3.3479  -3.1358  -3.0897  -3.0177  -2.8936  -2.8807  -2.8476
    -2.7569  -2.7425  -2.7112  -2.6178  -2.4433  -2.3476  -2.3439  -2.2706
    -2.1946  -1.9037  -1.8365  -1.8105  -1.0072  -0.8969  -0.6892  -0.5850
    -0.4672   0.7617   0.7821   0.8841   0.9090   0.9949   1.0955   1.1916
     1.2198   1.2636   1.3947   1.4117   1.6782   1.7491   1.8422   1.8475
     1.9181   2.0182   2.0225   2.1111

          k = 0.2088-0.1205 0.0000 ( 71543 PWs)   bands (ev):

   -15.6939 -14.8641 -14.6081 -14.5204 -14.4432 -14.1132 -14.1031 -14.0359
   -13.8928 -13.7814 -13.6608 -13.5903 -13.5683 -13.2976 -13.2117 -13.1987
   -12.7851 -12.7734  -7.2503  -7.1212  -6.9967  -6.8854  -6.8840  -6.8483
    -6.7259  -6.6183  -6.5484  -6.4460  -6.2328  -6.1824  -6.0592  -5.9202
    -5.5570  -5.5476  -5.4827  -5.4575  -5.4074  -5.3358  -5.2674  -5.2174
    -5.1299  -5.0127  -4.7364  -4.6868  -4.6660  -4.6223  -4.5486  -4.4847
    -4.4177  -4.4058  -4.1705  -3.9353  -3.9000  -3.7516  -3.6609  -3.4876
    -3.3555  -3.3495  -3.1488  -3.0951  -3.0201  -2.9159  -2.8978  -2.8280
    -2.7465  -2.7345  -2.7204  -2.6211  -2.4341  -2.3306  -2.3295  -2.2596
    -2.1781  -1.9071  -1.8315  -1.8065  -1.0275  -0.9002  -0.6827  -0.6017
    -0.4686   0.7662   0.7931   0.8780   0.9072   0.9965   1.0987   1.1979
     1.2244   1.2752   1.4039   1.4292   1.6684   1.7271   1.8319   1.8501
     1.9034   2.0047   2.0220   2.0989

          k = 0.2227-0.1286 0.0000 ( 71539 PWs)   bands (ev):

   -15.6848 -14.8883 -14.6146 -14.5151 -14.4467 -14.1060 -14.0892 -14.0438
   -13.8946 -13.7810 -13.6506 -13.5864 -13.5647 -13.2939 -13.2165 -13.2015
   -12.7872 -12.7738  -7.2642  -7.1173  -7.0020  -6.8835  -6.8739  -6.8448
    -6.7210  -6.6387  -6.5577  -6.4460  -6.2444  -6.2035  -6.0789  -5.9345
    -5.5455  -5.5398  -5.4639  -5.4433  -5.4015  -5.3251  -5.2626  -5.1901
    -5.1050  -5.0025  -4.7416  -4.6857  -4.6480  -4.6093  -4.5545  -4.5019
    -4.4302  -4.4168  -4.1695  -3.9513  -3.9272  -3.7452  -3.6520  -3.4799
    -3.3616  -3.3445  -3.1694  -3.0935  -3.0236  -2.9397  -2.9151  -2.8084
    -2.7632  -2.7301  -2.7028  -2.6219  -2.4229  -2.3158  -2.3129  -2.2489
    -2.1624  -1.9103  -1.8265  -1.8027  -1.0488  -0.9034  -0.6765  -0.6184
    -0.4695   0.7693   0.8008   0.8739   0.9089   0.9992   1.1020   1.2047
     1.2295   1.2864   1.4126   1.4468   1.6585   1.7031   1.8190   1.8508
     1.8899   1.9929   2.0196   2.0916

          k = 0.2366-0.1366 0.0000 ( 71531 PWs)   bands (ev):

   -15.6751 -14.9126 -14.6210 -14.5094 -14.4505 -14.1027 -14.0752 -14.0479
   -13.8964 -13.7812 -13.6407 -13.5822 -13.5610 -13.2905 -13.2213 -13.2042
   -12.7894 -12.7741  -7.2789  -7.1119  -7.0071  -6.8858  -6.8629  -6.8367
    -6.7169  -6.6596  -6.5679  -6.4450  -6.2546  -6.2242  -6.0981  -5.9492
    -5.5356  -5.5335  -5.4449  -5.4291  -5.3949  -5.3144  -5.2572  -5.1635
    -5.0801  -4.9937  -4.7489  -4.6833  -4.6277  -4.6079  -4.5456  -4.5188
    -4.4421  -4.4279  -4.1689  -3.9676  -3.9550  -3.7388  -3.6427  -3.4729
    -3.3661  -3.3392  -3.1929  -3.0897  -3.0282  -2.9643  -2.9324  -2.7901
    -2.7866  -2.7295  -2.6791  -2.6193  -2.4100  -2.3024  -2.2951  -2.2383
    -2.1473  -1.9130  -1.8217  -1.7991  -1.0709  -0.9064  -0.6706  -0.6350
    -0.4698   0.7709   0.8045   0.8721   0.9146   1.0031   1.1053   1.2118
     1.2351   1.2972   1.4209   1.4642   1.6487   1.6778   1.8034   1.8481
     1.8779   1.9827   2.0159   2.0890

          k = 0.2505-0.1446 0.0000 ( 71523 PWs)   bands (ev):

   -15.6650 -14.9368 -14.6272 -14.5034 -14.4545 -14.1048 -14.0613 -14.0465
   -13.8981 -13.7817 -13.6313 -13.5776 -13.5573 -13.2874 -13.2262 -13.2068
   -12.7916 -12.7744  -7.2940  -7.1053  -7.0121  -6.8901  -6.8515  -6.8259
    -6.7136  -6.6804  -6.5790  -6.4433  -6.2636  -6.2443  -6.1171  -5.9641
    -5.5286  -5.5270  -5.4257  -5.4152  -5.3878  -5.3037  -5.2508  -5.1377
    -5.0554  -4.9862  -4.7575  -4.6804  -4.6168  -4.6059  -4.5348  -4.5246
    -4.4524  -4.4390  -4.1687  -3.9847  -3.9826  -3.7322  -3.6331  -3.4675
    -3.3683  -3.3336  -3.2174  -3.0856  -3.0337  -2.9894  -2.9498  -2.8120
    -2.7751  -2.7301  -2.6544  -2.6134  -2.3957  -2.2895  -2.2770  -2.2278
    -2.1332  -1.9153  -1.8170  -1.7959  -1.0937  -0.9092  -0.6652  -0.6514
    -0.4696   0.7708   0.8046   0.8727   0.9238   1.0084   1.1087   1.2194
     1.2413   1.3076   1.4287   1.4813   1.6391   1.6518   1.7854   1.8413
     1.8674   1.9743   2.0128   2.0897

          k = 0.2644-0.1527 0.0000 ( 71511 PWs)   bands (ev):

   -15.6543 -14.9608 -14.6332 -14.4972 -14.4587 -14.1116 -14.0476 -14.0406
   -13.8998 -13.7826 -13.6223 -13.5729 -13.5536 -13.2848 -13.2310 -13.2094
   -12.7937 -12.7746  -7.3092  -7.0980  -7.0168  -6.8951  -6.8395  -6.8135
    -6.7113  -6.7010  -6.5904  -6.4413  -6.2716  -6.2638  -6.1356  -5.9793
    -5.5249  -5.5196  -5.4064  -5.4020  -5.3801  -5.2931  -5.2432  -5.1132
    -5.0309  -4.9801  -4.7668  -4.6775  -4.6289  -4.5860  -4.5462  -4.5039
    -4.4560  -4.4497  -4.1689  -4.0121  -4.0000  -3.7257  -3.6232  -3.4644
    -3.3675  -3.3278  -3.2423  -3.0822  -3.0402  -3.0145  -2.9673  -2.8382
    -2.7693  -2.7252  -2.6295  -2.6051  -2.3805  -2.2772  -2.2589  -2.2174
    -2.1199  -1.9169  -1.8126  -1.7929  -1.1172  -0.9118  -0.6682  -0.6597
    -0.4687   0.7692   0.8020   0.8753   0.9355   1.0150   1.1121   1.2271
     1.2481   1.3173   1.4359   1.4977   1.6244   1.6310   1.7657   1.8301
     1.8577   1.9675   2.0113   2.0922

          k = 0.2783-0.1607 0.0000 ( 71510 PWs)   bands (ev):

   -15.6431 -14.9847 -14.6390 -14.4907 -14.4629 -14.1209 -14.0347 -14.0315
   -13.9014 -13.7838 -13.6140 -13.5679 -13.5500 -13.2826 -13.2356 -13.2117
   -12.7959 -12.7748  -7.3241  -7.0900  -7.0212  -6.9000  -6.8272  -6.8004
    -6.7210  -6.7099  -6.6021  -6.4392  -6.2827  -6.2785  -6.1538  -5.9947
    -5.5222  -5.5131  -5.3902  -5.3872  -5.3714  -5.2826  -5.2342  -5.0904
    -5.0063  -4.9750  -4.7764  -4.6753  -4.6414  -4.5835  -4.5379  -4.4990
    -4.4605  -4.4397  -4.1693  -4.0408  -4.0156  -3.7191  -3.6131  -3.4639
    -3.3637  -3.3219  -3.2673  -3.0808  -3.0476  -3.0384  -2.9853  -2.8648
    -2.7743  -2.7120  -2.6048  -2.5956  -2.3647  -2.2655  -2.2408  -2.2070
    -2.1077  -1.9179  -1.8084  -1.7902  -1.1412  -0.9143  -0.6839  -0.6554
    -0.4671   0.7665   0.7978   0.8798   0.9485   1.0230   1.1155   1.2351
     1.2553   1.3265   1.4425   1.5128   1.5990   1.6222   1.7451   1.8153
     1.8484   1.9623   2.0112   2.0951

          k = 0.2923-0.1687 0.0000 ( 71514 PWs)   bands (ev):

   -15.6315 -15.0085 -14.6445 -14.4839 -14.4670 -14.1316 -14.0238 -14.0196
   -13.9028 -13.7852 -13.6064 -13.5629 -13.5464 -13.2810 -13.2399 -13.2139
   -12.7981 -12.7750  -7.3387  -7.0817  -7.0253  -6.9046  -6.8145  -6.7867
    -6.7403  -6.7097  -6.6137  -6.4371  -6.3006  -6.2848  -6.1715  -6.0103
    -5.5204  -5.5074  -5.3808  -5.3682  -5.3610  -5.2721  -5.2237  -5.0696
    -4.9816  -4.9710  -4.7861  -4.6750  -4.6522  -4.5963  -4.5138  -4.5063
    -4.4684  -4.4098  -4.1700  -4.0695  -4.0302  -3.7127  -3.6028  -3.4658
    -3.3576  -3.3161  -3.2918  -3.0857  -3.0572  -3.0552  -3.0043  -2.8911
    -2.7848  -2.6951  -2.5855  -2.5806  -2.3486  -2.2545  -2.2230  -2.1964
    -2.0966  -1.9182  -1.8046  -1.7877  -1.1656  -0.9165  -0.6992  -0.6514
    -0.4650   0.7631   0.7925   0.8857   0.9620   1.0323   1.1189   1.2432
     1.2629   1.3349   1.4483   1.5241   1.5765   1.6148   1.7241   1.7977
     1.8391   1.9588   2.0110   2.0978

          k = 0.3062-0.1768 0.0000 ( 71512 PWs)   bands (ev):

   -15.6194 -15.0320 -14.6497 -14.4769 -14.4711 -14.1429 -14.0136 -14.0070
   -13.9041 -13.7868 -13.5995 -13.5578 -13.5429 -13.2801 -13.2438 -13.2159
   -12.8002 -12.7751  -7.3528  -7.0731  -7.0291  -6.9087  -6.8019  -6.7729
    -6.7584  -6.7105  -6.6249  -6.4351  -6.3177  -6.2903  -6.1888  -6.0260
    -5.5192  -5.5023  -5.3740  -5.3500  -5.3484  -5.2618  -5.2117  -5.0511
    -4.9679  -4.9565  -4.7958  -4.6795  -4.6583  -4.6118  -4.5169  -4.4973
    -4.4629  -4.3759  -4.1708  -4.0982  -4.0429  -3.7066  -3.5925  -3.4696
    -3.3519  -3.3140  -3.3101  -3.1033  -3.0645  -3.0630  -3.0249  -2.9163
    -2.7974  -2.6772  -2.5753  -2.5570  -2.3326  -2.2443  -2.2055  -2.1854
    -2.0866  -1.9177  -1.8011  -1.7854  -1.1904  -0.9185  -0.7140  -0.6479
    -0.4624   0.7592   0.7867   0.8928   0.9755   1.0428   1.1224   1.2512
     1.2707   1.3425   1.4534   1.5219   1.5669   1.6086   1.7033   1.7786
     1.8296   1.9567   2.0087   2.1006

          k = 0.3201-0.1848 0.0000 ( 71498 PWs)   bands (ev):

   -15.6069 -15.0552 -14.6546 -14.4751 -14.4696 -14.1545 -14.0036 -13.9947
   -13.9051 -13.7884 -13.5933 -13.5529 -13.5395 -13.2800 -13.2471 -13.2176
   -12.8023 -12.7751  -7.3663  -7.0646  -7.0325  -6.9121  -6.7914  -6.7737
    -6.7586  -6.7123  -6.6356  -6.4336  -6.3338  -6.2952  -6.2056  -6.0418
    -5.5185  -5.4978  -5.3691  -5.3365  -5.3307  -5.2517  -5.1983  -5.0350
    -4.9655  -4.9310  -4.8053  -4.6889  -4.6596  -4.6279  -4.5280  -4.5012
    -4.4340  -4.3422  -4.1715  -4.1266  -4.0526  -3.7007  -3.5822  -3.4746
    -3.3572  -3.3239  -3.3046  -3.1266  -3.0745  -3.0638  -3.0475  -2.9393
    -2.8108  -2.6593  -2.5652  -2.5343  -2.3170  -2.2349  -2.1884  -2.1741
    -2.0778  -1.9164  -1.7979  -1.7833  -1.2153  -0.9204  -0.7281  -0.6448
    -0.4593   0.7552   0.7808   0.9009   0.9886   1.0543   1.1257   1.2593
     1.2784   1.3492   1.4577   1.5031   1.5739   1.6037   1.6829   1.7590
     1.8200   1.9558   2.0026   2.0890

          k = 0.3340-0.1929 0.0000 ( 71518 PWs)   bands (ev):

   -15.5941 -15.0780 -14.6593 -14.4788 -14.4622 -14.1663 -13.9937 -13.9830
   -13.9059 -13.7901 -13.5879 -13.5480 -13.5363 -13.2807 -13.2497 -13.2190
   -12.8043 -12.7751  -7.3791  -7.0562  -7.0356  -6.9147  -6.7975  -6.7708
    -6.7454  -6.7147  -6.6455  -6.4325  -6.3488  -6.2995  -6.2219  -6.0575
    -5.5182  -5.4938  -5.3655  -5.3234  -5.3128  -5.2418  -5.1838  -5.0211
    -4.9638  -4.9052  -4.8145  -4.6999  -4.6592  -4.6438  -4.5390  -4.5101
    -4.3977  -4.3113  -4.1720  -4.1546  -4.0576  -3.6953  -3.5721  -3.4805
    -3.3780  -3.3175  -3.2993  -3.1507  -3.0875  -3.0708  -3.0633  -2.9596
    -2.8243  -2.6418  -2.5556  -2.5126  -2.3021  -2.2265  -2.1720  -2.1622
    -2.0702  -1.9144  -1.7952  -1.7812  -1.2402  -0.9220  -0.7415  -0.6422
    -0.4558   0.7512   0.7749   0.9097   1.0012   1.0666   1.1289   1.2671
     1.2856   1.3550   1.4611   1.4796   1.5857   1.6003   1.6633   1.7396
     1.8102   1.9560   1.9920   2.0647

          k = 0.3479-0.2009 0.0000 ( 71508 PWs)   bands (ev):

   -15.5809 -15.1004 -14.6636 -14.4824 -14.4546 -14.1780 -13.9843 -13.9722
   -13.9064 -13.7918 -13.5833 -13.5434 -13.5332 -13.2824 -13.2515 -13.2203
   -12.8063 -12.7751  -7.3911  -7.0482  -7.0382  -6.9163  -6.8122  -6.7581
    -6.7344  -6.7163  -6.6543  -6.4322  -6.3624  -6.3032  -6.2375  -6.0731
    -5.5182  -5.4902  -5.3629  -5.3106  -5.2956  -5.2322  -5.1682  -5.0092
    -4.9626  -4.8790  -4.8233  -4.7109  -4.6595  -4.6585  -4.5496  -4.5196
    -4.3590  -4.2861  -4.1819  -4.1719  -4.0555  -3.6906  -3.5622  -3.4873
    -3.4029  -3.3067  -3.2946  -3.1741  -3.1105  -3.0869  -3.0637  -2.9769
    -2.8377  -2.6249  -2.5465  -2.4922  -2.2880  -2.2191  -2.1564  -2.1498
    -2.0637  -1.9117  -1.7928  -1.7793  -1.2650  -0.9235  -0.7541  -0.6400
    -0.4520   0.7474   0.7692   0.9192   1.0132   1.0792   1.1318   1.2748
     1.2917   1.3598   1.4563   1.4638   1.5978   1.5984   1.6448   1.7214
     1.8006   1.9568   1.9777   2.0410

          k = 0.3619-0.2089 0.0000 ( 71510 PWs)   bands (ev):

   -15.5674 -15.1224 -14.6675 -14.4857 -14.4469 -14.1895 -13.9752 -13.9623
   -13.9064 -13.7934 -13.5794 -13.5390 -13.5302 -13.2847 -13.2527 -13.2213
   -12.8081 -12.7751  -7.4022  -7.0414  -7.0398  -6.9169  -6.8268  -6.7445
    -6.7307  -6.7126  -6.6614  -6.4331  -6.3745  -6.3065  -6.2524  -6.0884
    -5.5184  -5.4871  -5.3611  -5.2981  -5.2793  -5.2227  -5.1520  -4.9991
    -4.9620  -4.8528  -4.8317  -4.7215  -4.6743  -4.6587  -4.5596  -4.5290
    -4.3196  -4.2692  -4.2076  -4.1716  -4.0438  -3.6867  -3.5527  -3.4951
    -3.4283  -3.2949  -3.2910  -3.1962  -3.1407  -3.0980  -3.0644  -2.9917
    -2.8505  -2.6089  -2.5380  -2.4730  -2.2750  -2.2127  -2.1416  -2.1369
    -2.0582  -1.9084  -1.7908  -1.7773  -1.2894  -0.9248  -0.7657  -0.6382
    -0.4481   0.7439   0.7637   0.9295   1.0247   1.0919   1.1345   1.2822
     1.2957   1.3635   1.4353   1.4657   1.5975   1.6086   1.6280   1.7053
     1.7911   1.9573   1.9609   2.0186

          k = 0.3758-0.2170 0.0000 ( 71504 PWs)   bands (ev):

   -15.5538 -15.1437 -14.6711 -14.4888 -14.4391 -14.2008 -13.9667 -13.9536
   -13.9057 -13.7950 -13.5762 -13.5349 -13.5275 -13.2874 -13.2533 -13.2220
   -12.8098 -12.7750  -7.4125  -7.0424  -7.0338  -6.9163  -6.8405  -6.7345
    -6.7301  -6.7055  -6.6653  -6.4356  -6.3844  -6.3094  -6.2664  -6.1034
    -5.5187  -5.4843  -5.3597  -5.2861  -5.2640  -5.2134  -5.1354  -4.9906
    -4.9619  -4.8398  -4.8265  -4.7315  -4.6887  -4.6591  -4.5687  -4.5381
    -4.2845  -4.2609  -4.2270  -4.1715  -4.0214  -3.6841  -3.5437  -3.5050
    -3.4522  -3.2898  -3.2829  -3.2166  -3.1725  -3.1077  -3.0656  -3.0042
    -2.8627  -2.5940  -2.5301  -2.4553  -2.2631  -2.2072  -2.1278  -2.1236
    -2.0536  -1.9048  -1.7892  -1.7753  -1.3132  -0.9260  -0.7764  -0.6367
    -0.4441   0.7406   0.7587   0.9404   1.0356   1.1044   1.1366   1.2892
     1.2964   1.3661   1.4182   1.4670   1.5962   1.6143   1.6167   1.6929
     1.7821   1.9421   1.9566   1.9991

          k = 0.3897-0.2250 0.0000 ( 71474 PWs)   bands (ev):

   -15.5401 -15.1644 -14.6744 -14.4916 -14.4313 -14.2118 -13.9589 -13.9464
   -13.9043 -13.7964 -13.5736 -13.5311 -13.5249 -13.2903 -13.2537 -13.2225
   -12.8113 -12.7749  -7.4218  -7.0439  -7.0279  -6.9146  -6.8531  -6.7393
    -6.7166  -6.7022  -6.6639  -6.4402  -6.3918  -6.3118  -6.2794  -6.1177
    -5.5191  -5.4818  -5.3589  -5.2748  -5.2502  -5.2042  -5.1186  -4.9834
    -4.9623  -4.8472  -4.8007  -4.7408  -4.7022  -4.6600  -4.5771  -4.5469
    -4.2784  -4.2592  -4.2159  -4.1719  -3.9900  -3.6833  -3.5354  -3.5191
    -3.4718  -3.2935  -3.2716  -3.2345  -3.2018  -3.1169  -3.0674  -3.0149
    -2.8739  -2.5801  -2.5230  -2.4392  -2.2525  -2.2027  -2.1152  -2.1104
    -2.0497  -1.9009  -1.7879  -1.7732  -1.3361  -0.9270  -0.7861  -0.6355
    -0.4403   0.7377   0.7540   0.9520   1.0458   1.1163   1.1381   1.2922
     1.2959   1.3678   1.4066   1.4679   1.5894   1.6090   1.6199   1.6863
     1.7738   1.9228   1.9497   1.9867

          k = 0.4036-0.2330 0.0000 ( 71448 PWs)   bands (ev):

   -15.5265 -15.1841 -14.6773 -14.4941 -14.4236 -14.2224 -13.9518 -13.9408
   -13.9020 -13.7978 -13.5716 -13.5278 -13.5226 -13.2933 -13.2539 -13.2229
   -12.8128 -12.7748  -7.4302  -7.0450  -7.0230  -6.9118  -6.8645  -6.7449
    -6.7047  -6.7024  -6.6570  -6.4468  -6.3968  -6.3139  -6.2912  -6.1313
    -5.5196  -5.4797  -5.3583  -5.2643  -5.2379  -5.1951  -5.1021  -4.9774
    -4.9632  -4.8541  -4.7754  -4.7492  -4.7146  -4.6615  -4.5846  -4.5552
    -4.2977  -4.2618  -4.1777  -4.1729  -3.9523  -3.6852  -3.5387  -3.5280
    -3.4852  -3.3072  -3.2634  -3.2478  -3.2227  -3.1255  -3.0697  -3.0242
    -2.8842  -2.5676  -2.5165  -2.4248  -2.2430  -2.1991  -2.1039  -2.0974
    -2.0465  -1.8969  -1.7870  -1.7710  -1.3579  -0.9278  -0.7947  -0.6345
    -0.4366   0.7351   0.7499   0.9643   1.0553   1.1274   1.1386   1.2834
     1.3019   1.3685   1.4008   1.4684   1.5785   1.6104   1.6176   1.6865
     1.7665   1.9033   1.9351   1.9831

          k = 0.4175-0.2411 0.0000 ( 71454 PWs)   bands (ev):

   -15.5131 -15.2029 -14.6798 -14.4963 -14.4161 -14.2324 -13.9454 -13.9367
   -13.8989 -13.7990 -13.5701 -13.5249 -13.5205 -13.2960 -13.2540 -13.2231
   -12.8140 -12.7747  -7.4375  -7.0459  -7.0190  -6.9080  -6.8747  -6.7506
    -6.7086  -6.6898  -6.6478  -6.4547  -6.4000  -6.3156  -6.3017  -6.1439
    -5.5200  -5.4779  -5.3580  -5.2548  -5.2275  -5.1863  -5.0861  -4.9725
    -4.9646  -4.8604  -4.7568  -4.7516  -4.7250  -4.6632  -4.5911  -4.5632
    -4.3202  -4.2664  -4.1741  -4.1346  -3.9106  -3.6914  -3.5602  -3.5220
    -3.4937  -3.3335  -3.2691  -3.2455  -3.2323  -3.1335  -3.0723  -3.0322
    -2.8934  -2.5565  -2.5109  -2.4121  -2.2346  -2.1964  -2.0941  -2.0851
    -2.0437  -1.8930  -1.7864  -1.7688  -1.3782  -0.9285  -0.8023  -0.6337
    -0.4332   0.7329   0.7462   0.9771   1.0640   1.1362   1.1391   1.2712
     1.3074   1.3686   1.3996   1.4686   1.5677   1.6115   1.6138   1.6920
     1.7604   1.8840   1.9172   1.9842

          k = 0.4314-0.2491 0.0000 ( 71468 PWs)   bands (ev):

   -15.5003 -15.2202 -14.6819 -14.4982 -14.4090 -14.2416 -13.9400 -13.9340
   -13.8955 -13.8000 -13.5691 -13.5225 -13.5186 -13.2985 -13.2541 -13.2232
   -12.8151 -12.7746  -7.4437  -7.0465  -7.0160  -6.9036  -6.8834  -6.7561
    -6.7137  -6.6774  -6.6383  -6.4633  -6.4020  -6.3170  -6.3107  -6.1552
    -5.5205  -5.4764  -5.3578  -5.2464  -5.2189  -5.1778  -5.0709  -4.9684
    -4.9666  -4.8659  -4.7632  -4.7411  -4.7218  -4.6651  -4.5968  -4.5709
    -4.3422  -4.2718  -4.1753  -4.0904  -3.8666  -3.7038  -3.5797  -3.5179
    -3.4994  -3.3674  -3.2798  -3.2369  -3.2345  -3.1408  -3.0750  -3.0389
    -2.9014  -2.5469  -2.5060  -2.4013  -2.2274  -2.1944  -2.0857  -2.0739
    -2.0414  -1.8894  -1.7860  -1.7664  -1.3966  -0.9291  -0.8088  -0.6331
    -0.4301   0.7311   0.7430   0.9905   1.0716   1.1349   1.1469   1.2579
     1.3122   1.3682   1.4012   1.4684   1.5585   1.6041   1.6178   1.7001
     1.7557   1.8655   1.8991   1.9867

          k = 0.4454-0.2571 0.0000 ( 71482 PWs)   bands (ev):

   -15.4885 -15.2358 -14.6837 -14.4997 -14.4025 -14.2499 -13.9355 -13.9322
   -13.8920 -13.8009 -13.5684 -13.5206 -13.5170 -13.3006 -13.2541 -13.2233
   -12.8160 -12.7745  -7.4488  -7.0468  -7.0137  -6.8990  -6.8907  -6.7611
    -6.7187  -6.6660  -6.6296  -6.4717  -6.4033  -6.3184  -6.3179  -6.1650
    -5.5209  -5.4751  -5.3577  -5.2392  -5.2121  -5.1701  -5.0568  -4.9691
    -4.9653  -4.8706  -4.7687  -4.7478  -4.7009  -4.6670  -4.6015  -4.5786
    -4.3623  -4.2770  -4.1764  -4.0460  -3.8215  -3.7239  -3.5943  -3.5171
    -3.5035  -3.4031  -3.2891  -3.2337  -3.2287  -3.1472  -3.0778  -3.0445
    -2.9080  -2.5390  -2.5019  -2.3923  -2.2212  -2.1932  -2.0790  -2.0641
    -2.0394  -1.8862  -1.7858  -1.7641  -1.4126  -0.9296  -0.8141  -0.6326
    -0.4275   0.7296   0.7404   1.0041   1.0782   1.1304   1.1544   1.2455
     1.3163   1.3675   1.4041   1.4680   1.5510   1.5972   1.6217   1.7094
     1.7528   1.8481   1.8823   1.9895

          k = 0.4593-0.2652 0.0000 ( 71468 PWs)   bands (ev):

   -15.4780 -15.2491 -14.6851 -14.5009 -14.3968 -14.2570 -13.9325 -13.9306
   -13.8889 -13.8015 -13.5679 -13.5192 -13.5156 -13.3023 -13.2541 -13.2233
   -12.8167 -12.7745  -7.4528  -7.0470  -7.0121  -6.8966  -6.8946  -6.7653
    -6.7230  -6.6562  -6.6223  -6.4793  -6.4042  -6.3241  -6.3189  -6.1730
    -5.5212  -5.4742  -5.3577  -5.2335  -5.2071  -5.1636  -5.0444  -4.9720
    -4.9629  -4.8745  -4.7731  -4.7546  -4.6799  -4.6687  -4.6052  -4.5865
    -4.3797  -4.2815  -4.1772  -4.0021  -3.7765  -3.7513  -3.6035  -3.5228
    -3.5065  -3.4349  -3.2963  -3.2318  -3.2217  -3.1526  -3.0804  -3.0489
    -2.9133  -2.5328  -2.4987  -2.3853  -2.2162  -2.1925  -2.0738  -2.0560
    -2.0377  -1.8836  -1.7857  -1.7620  -1.4257  -0.9299  -0.8182  -0.6323
    -0.4255   0.7284   0.7384   1.0177   1.0834   1.1238   1.1605   1.2354
     1.3197   1.3667   1.4070   1.4674   1.5454   1.5914   1.6250   1.7189
     1.7514   1.8323   1.8677   1.9921

          k = 0.4732-0.2732 0.0000 ( 71462 PWs)   bands (ev):

   -15.4698 -15.2595 -14.6861 -14.5018 -14.3924 -14.2624 -13.9313 -13.9286
   -13.8865 -13.8020 -13.5676 -13.5182 -13.5146 -13.3036 -13.2542 -13.2232
   -12.8172 -12.7744  -7.4557  -7.0471  -7.0111  -6.9007  -6.8910  -6.7687
    -6.7263  -6.6485  -6.6168  -6.4855  -6.4048  -6.3283  -6.3195  -6.1790
    -5.5214  -5.4735  -5.3577  -5.2293  -5.2035  -5.1586  -5.0341  -4.9752
    -4.9612  -4.8773  -4.7763  -4.7598  -4.6701  -4.6609  -4.6079  -4.5949
    -4.3934  -4.2850  -4.1779  -3.9595  -3.7836  -3.7331  -3.6086  -3.5397
    -3.5086  -3.4560  -3.3014  -3.2298  -3.2165  -3.1567  -3.0824  -3.0520
    -2.9171  -2.5283  -2.4963  -2.3803  -2.2124  -2.1923  -2.0702  -2.0500
    -2.0363  -1.8816  -1.7857  -1.7603  -1.4355  -0.9302  -0.8212  -0.6320
    -0.4239   0.7276   0.7369   1.0303   1.0873   1.1158   1.1650   1.2282
     1.3221   1.3660   1.4095   1.4667   1.5415   1.5872   1.6276   1.7276
     1.7513   1.8189   1.8561   1.9942

          k = 0.4871-0.2812 0.0000 ( 71466 PWs)   bands (ev):

   -15.4644 -15.2661 -14.6866 -14.5023 -14.3896 -14.2658 -13.9309 -13.9272
   -13.8851 -13.8023 -13.5675 -13.5176 -13.5140 -13.3044 -13.2542 -13.2232
   -12.8175 -12.7744  -7.4575  -7.0471  -7.0105  -6.9032  -6.8886  -6.7708
    -6.7284  -6.6435  -6.6133  -6.4896  -6.4052  -6.3308  -6.3198  -6.1826
    -5.5216  -5.4731  -5.3577  -5.2268  -5.2014  -5.1555  -5.0271  -4.9779
    -4.9602  -4.8791  -4.7782  -4.7630  -4.6709  -4.6455  -4.6096  -4.6032
    -4.4021  -4.2871  -4.1783  -3.9205  -3.8168  -3.6954  -3.6112  -3.5650
    -3.5098  -3.4653  -3.3045  -3.2284  -3.2132  -3.1593  -3.0838  -3.0539
    -2.9194  -2.5256  -2.4949  -2.3773  -2.2100  -2.1924  -2.0681  -2.0464
    -2.0355  -1.8804  -1.7857  -1.7592  -1.4416  -0.9303  -0.8230  -0.6319
    -0.4230   0.7271   0.7360   1.0401   1.0896   1.1085   1.1677   1.2240
     1.3236   1.3655   1.4112   1.4663   1.5393   1.5846   1.6291   1.7343
     1.7519   1.8093   1.8484   1.9955

          k = 0.5010-0.2893 0.0000 ( 71480 PWs)   bands (ev):

   -15.4625 -15.2684 -14.6868 -14.5025 -14.3886 -14.2670 -13.9308 -13.9267
   -13.8846 -13.8024 -13.5674 -13.5174 -13.5137 -13.3046 -13.2542 -13.2232
   -12.8176 -12.7744  -7.4580  -7.0472  -7.0103  -6.9041  -6.8877  -6.7716
    -6.7291  -6.6418  -6.6122  -6.4910  -6.4053  -6.3316  -6.3199  -6.1839
    -5.5216  -5.4730  -5.3577  -5.2259  -5.2008  -5.1544  -5.0245  -4.9790
    -4.9598  -4.8797  -4.7789  -4.7641  -4.6712  -4.6385  -4.6101  -4.6078
    -4.4052  -4.2879  -4.1784  -3.8989  -3.8367  -3.6773  -3.6120  -3.5798
    -3.5102  -3.4676  -3.3055  -3.2279  -3.2120  -3.1602  -3.0843  -3.0546
    -2.9202  -2.5247  -2.4944  -2.3763  -2.2091  -2.1924  -2.0674  -2.0451
    -2.0352  -1.8800  -1.7857  -1.7588  -1.4436  -0.9304  -0.8236  -0.6319
    -0.4227   0.7269   0.7357   1.0442   1.0904   1.1053   1.1686   1.2226
     1.3241   1.3654   1.4117   1.4661   1.5386   1.5837   1.6297   1.7369
     1.7522   1.8057   1.8458   1.9960

          k = 0.4931-0.3031 0.0000 ( 71498 PWs)   bands (ev):

   -15.4622 -15.2684 -14.6902 -14.4991 -14.3884 -14.2670 -13.9325 -13.9265
   -13.8850 -13.8009 -13.5673 -13.5176 -13.5138 -13.3050 -13.2542 -13.2228
   -12.8178 -12.7742  -7.4577  -7.0482  -7.0118  -6.9082  -6.8819  -6.7713
    -6.7287  -6.6437  -6.6106  -6.4903  -6.4064  -6.3318  -6.3195  -6.1831
    -5.5234  -5.4710  -5.3574  -5.2434  -5.1954  -5.1427  -5.0242  -4.9868
    -4.9513  -4.8797  -4.7829  -4.7597  -4.6716  -4.6398  -4.6106  -4.6049
    -4.4052  -4.2889  -4.1783  -3.9006  -3.8390  -3.6762  -3.6099  -3.5781
    -3.5111  -3.4673  -3.3083  -3.2351  -3.2040  -3.1628  -3.0831  -3.0518
    -2.9202  -2.5252  -2.4940  -2.3758  -2.2091  -2.1970  -2.0666  -2.0483
    -2.0290  -1.8801  -1.7859  -1.7583  -1.4440  -0.9315  -0.8224  -0.6318
    -0.4228   0.7272   0.7366   1.0437   1.0902   1.1046   1.1690   1.2227
     1.3241   1.3653   1.4111   1.4660   1.5370   1.5852   1.6289   1.7366
     1.7524   1.8050   1.8471   1.9942

          k = 0.4851-0.3168 0.0000 ( 71488 PWs)   bands (ev):

   -15.4613 -15.2682 -14.6994 -14.4895 -14.3879 -14.2669 -13.9366 -13.9268
   -13.8864 -13.7966 -13.5672 -13.5180 -13.5140 -13.3060 -13.2544 -13.2215
   -12.8182 -12.7739  -7.4568  -7.0513  -7.0164  -6.9143  -6.8709  -6.7706
    -6.7276  -6.6485  -6.6068  -6.4881  -6.4097  -6.3323  -6.3183  -6.1807
    -5.5281  -5.4660  -5.3568  -5.2743  -5.1912  -5.1175  -5.0239  -4.9981
    -4.9371  -4.8797  -4.7899  -4.7517  -4.6728  -4.6424  -4.6105  -4.5990
    -4.4055  -4.2921  -4.1782  -3.9056  -3.8456  -3.6732  -3.6038  -3.5737
    -3.5136  -3.4661  -3.3160  -3.2464  -3.1908  -3.1695  -3.0798  -3.0444
    -2.9203  -2.5267  -2.4923  -2.3745  -2.2143  -2.2045  -2.0645  -2.0514
    -2.0174  -1.8805  -1.7865  -1.7568  -1.4449  -0.9347  -0.8191  -0.6318
    -0.4231   0.7283   0.7390   1.0425   1.0896   1.1027   1.1700   1.2230
     1.3240   1.3651   1.4091   1.4659   1.5327   1.5891   1.6265   1.7357
     1.7531   1.8030   1.8506   1.9890

          k = 0.4772-0.3306 0.0000 ( 71492 PWs)   bands (ev):

   -15.4599 -15.2680 -14.7131 -14.4752 -14.3871 -14.2668 -13.9426 -13.9280
   -13.8882 -13.7901 -13.5668 -13.5187 -13.5142 -13.3077 -13.2546 -13.2195
   -12.8188 -12.7733  -7.4553  -7.0562  -7.0237  -6.9189  -6.8585  -6.7695
    -6.7258  -6.6546  -6.6027  -6.4844  -6.4150  -6.3328  -6.3167  -6.1769
    -5.5342  -5.4594  -5.3570  -5.3069  -5.1880  -5.0894  -5.0268  -5.0051
    -4.9222  -4.8795  -4.7968  -4.7435  -4.6746  -4.6448  -4.6098  -4.5917
    -4.4058  -4.2974  -4.1778  -3.9135  -3.8556  -3.6687  -3.5941  -3.5688
    -3.5167  -3.4638  -3.3276  -3.2580  -3.1829  -3.1729  -3.0747  -3.0338
    -2.9205  -2.5298  -2.4890  -2.3725  -2.2336  -2.2035  -2.0624  -2.0520
    -2.0039  -1.8808  -1.7874  -1.7544  -1.4466  -0.9395  -0.8140  -0.6317
    -0.4235   0.7302   0.7428   1.0404   1.0882   1.1000   1.1714   1.2235
     1.3238   1.3648   1.4059   1.4657   1.5267   1.5942   1.6228   1.7339
     1.7547   1.8003   1.8558   1.9812

          k = 0.4692-0.3444 0.0000 ( 71500 PWs)   bands (ev):

   -15.4578 -15.2677 -14.7297 -14.4578 -14.3859 -14.2666 -13.9499 -13.9300
   -13.8902 -13.7820 -13.5664 -13.5197 -13.5146 -13.3098 -13.2549 -13.2169
   -12.8196 -12.7725  -7.4532  -7.0630  -7.0331  -6.9215  -6.8459  -6.7680
    -6.7232  -6.6611  -6.5990  -6.4791  -6.4219  -6.3333  -6.3151  -6.1716
    -5.5409  -5.4520  -5.3655  -5.3318  -5.1845  -5.0620  -5.0355  -5.0040
    -4.9080  -4.8785  -4.8028  -4.7364  -4.6764  -4.6458  -4.6085  -4.5837
    -4.4063  -4.3047  -4.1770  -3.9237  -3.8678  -3.6630  -3.5814  -3.5672
    -3.5179  -3.4598  -3.3413  -3.2696  -3.1929  -3.1593  -3.0686  -3.0215
    -2.9207  -2.5346  -2.4838  -2.3704  -2.2585  -2.2007  -2.0614  -2.0496
    -1.9902  -1.8807  -1.7887  -1.7513  -1.4489  -0.9456  -0.8076  -0.6315
    -0.4241   0.7333   0.7477   1.0376   1.0857   1.0970   1.1729   1.2244
     1.3235   1.3645   1.4017   1.4653   1.5198   1.5995   1.6181   1.7312
     1.7572   1.7972   1.8619   1.9713

          k = 0.4612-0.3582 0.0000 ( 71506 PWs)   bands (ev):

   -15.4552 -15.2675 -14.7479 -14.4385 -14.3843 -14.2665 -13.9584 -13.9328
   -13.8924 -13.7729 -13.5659 -13.5209 -13.5150 -13.3123 -13.2552 -13.2138
   -12.8206 -12.7715  -7.4504  -7.0715  -7.0440  -6.9224  -6.8336  -6.7659
    -6.7201  -6.6674  -6.5963  -6.4723  -6.4301  -6.3335  -6.3135  -6.1651
    -5.5477  -5.4447  -5.3938  -5.3368  -5.1804  -5.0466  -5.0372  -4.9975
    -4.8964  -4.8750  -4.8076  -4.7316  -4.6774  -4.6449  -4.6069  -4.5754
    -4.4070  -4.3137  -4.1756  -3.9356  -3.8813  -3.6566  -3.5724  -3.5668
    -3.5146  -3.4543  -3.3555  -3.2812  -3.2052  -3.1441  -3.0619  -3.0083
    -2.9207  -2.5410  -2.4768  -2.3691  -2.2860  -2.1970  -2.0613  -2.0448
    -1.9773  -1.8799  -1.7902  -1.7478  -1.4518  -0.9524  -0.8002  -0.6314
    -0.4247   0.7374   0.7537   1.0341   1.0817   1.0944   1.1742   1.2258
     1.3231   1.3641   1.3966   1.4646   1.5125   1.6028   1.6143   1.7281
     1.7605   1.7939   1.8686   1.9601

          k = 0.4533-0.3720 0.0000 ( 71480 PWs)   bands (ev):

   -15.4520 -15.2672 -14.7671 -14.4182 -14.3823 -14.2663 -13.9676 -13.9362
   -13.8947 -13.7630 -13.5654 -13.5224 -13.5154 -13.3150 -13.2556 -13.2104
   -12.8217 -12.7704  -7.4472  -7.0815  -7.0556  -6.9219  -6.8222  -6.7631
    -6.7164  -6.6732  -6.5948  -6.4643  -6.4392  -6.3334  -6.3122  -6.1576
    -5.5543  -5.4379  -5.4297  -5.3336  -5.1758  -5.0578  -5.0170  -4.9866
    -4.8901  -4.8668  -4.8107  -4.7300  -4.6770  -4.6418  -4.6049  -4.5673
    -4.4078  -4.3243  -4.1733  -3.9488  -3.8951  -3.6500  -3.5838  -3.5525
    -3.5070  -3.4488  -3.3676  -3.2927  -3.2176  -3.1288  -3.0551  -2.9952
    -2.9203  -2.5487  -2.4682  -2.3714  -2.3123  -2.1926  -2.0614  -2.0385
    -1.9658  -1.8778  -1.7921  -1.7440  -1.4555  -0.9597  -0.7923  -0.6314
    -0.4255   0.7428   0.7606   1.0300   1.0764   1.0921   1.1750   1.2279
     1.3224   1.3637   1.3909   1.4636   1.5052   1.5996   1.6157   1.7246
     1.7645   1.7907   1.8754   1.9481

          k = 0.4453-0.3857 0.0000 ( 71466 PWs)   bands (ev):

   -15.4482 -15.2670 -14.7867 -14.3977 -14.3795 -14.2660 -13.9772 -13.9402
   -13.8971 -13.7528 -13.5648 -13.5241 -13.5160 -13.3179 -13.2560 -13.2069
   -12.8230 -12.7693  -7.4434  -7.0928  -7.0675  -6.9203  -6.8124  -6.7591
    -6.7125  -6.6784  -6.5943  -6.4569  -6.4474  -6.3327  -6.3113  -6.1491
    -5.5604  -5.4674  -5.4316  -5.3280  -5.1706  -5.0683  -5.0025  -4.9717
    -4.8873  -4.8559  -4.8115  -4.7311  -4.6757  -4.6362  -4.6025  -4.5594
    -4.4087  -4.3363  -4.1699  -3.9629  -3.9084  -3.6444  -3.5986  -3.5409
    -3.4954  -3.4471  -3.3731  -3.3037  -3.2295  -3.1137  -3.0485  -2.9829
    -2.9190  -2.5576  -2.4583  -2.3847  -2.3299  -2.1878  -2.0616  -2.0312
    -1.9563  -1.8742  -1.7942  -1.7402  -1.4599  -0.9671  -0.7841  -0.6315
    -0.4262   0.7494   0.7682   1.0254   1.0701   1.0898   1.1751   1.2307
     1.3215   1.3632   1.3847   1.4619   1.4981   1.5924   1.6200   1.7211
     1.7688   1.7875   1.8822   1.9359

          k = 0.4374-0.3995 0.0000 ( 71480 PWs)   bands (ev):

   -15.4438 -15.2670 -14.8062 -14.3820 -14.3716 -14.2658 -13.9871 -13.9446
   -13.8997 -13.7425 -13.5642 -13.5260 -13.5166 -13.3207 -13.2564 -13.2033
   -12.8242 -12.7681  -7.4391  -7.1051  -7.0793  -6.9179  -6.8049  -6.7536
    -6.7084  -6.6827  -6.5948  -6.4625  -6.4426  -6.3313  -6.3108  -6.1399
    -5.5662  -5.5054  -5.4261  -5.3213  -5.1650  -5.0778  -4.9919  -4.9556
    -4.8851  -4.8456  -4.8092  -4.7341  -4.6742  -4.6285  -4.5998  -4.5520
    -4.4099  -4.3493  -4.1651  -3.9775  -3.9207  -3.6436  -3.6116  -3.5352
    -3.4794  -3.4519  -3.3692  -3.3133  -3.2406  -3.0990  -3.0424  -2.9723
[...]
    -2.7332  -2.7145  -2.6421  -2.5878  -2.4882  -2.4061  -2.2651  -2.2381
    -2.1102  -1.9179  -1.8273  -1.7908  -1.0626  -0.9121  -0.6854  -0.6078
    -0.4787   0.7760   0.8219   0.8705   0.9242   0.9445   1.1349   1.2029
     1.2442   1.2910   1.4150   1.4631   1.6412   1.6828   1.8126   1.8500
     1.8852   1.9676   2.0394   2.0754

          k = 0.1272-0.2204 0.0000 ( 71513 PWs)   bands (ev):

   -15.6863 -14.8707 -14.6626 -14.5161 -14.3868 -14.1604 -14.0716 -14.0280
   -13.9111 -13.7646 -13.6521 -13.5981 -13.5588 -13.2952 -13.2215 -13.1946
   -12.7893 -12.7712  -7.2512  -7.1172  -7.0446  -6.8875  -6.8512  -6.8040
    -6.7612  -6.6210  -6.5498  -6.4644  -6.2371  -6.1852  -6.1324  -5.7932
    -5.6905  -5.5829  -5.4764  -5.4117  -5.3250  -5.2971  -5.2713  -5.2173
    -5.1275  -4.9868  -4.7447  -4.7202  -4.6507  -4.5984  -4.5599  -4.4886
    -4.4302  -4.3957  -4.1685  -3.9524  -3.9029  -3.7464  -3.6898  -3.4763
    -3.3662  -3.3125  -3.2041  -3.1515  -2.9846  -2.9272  -2.8740  -2.8500
    -2.7350  -2.7267  -2.6515  -2.5856  -2.4821  -2.4187  -2.2829  -2.2503
    -2.1298  -1.9140  -1.8313  -1.7962  -1.0415  -0.9077  -0.6868  -0.5981
    -0.4769   0.7718   0.8111   0.8750   0.9256   0.9437   1.1292   1.1975
     1.2364   1.2798   1.4074   1.4460   1.6528   1.7075   1.8287   1.8609
     1.8844   1.9780   2.0356   2.0907

          k = 0.1193-0.2067 0.0000 ( 71526 PWs)   bands (ev):

   -15.6952 -14.8487 -14.6485 -14.5213 -14.3931 -14.1661 -14.0770 -14.0265
   -13.9060 -13.7688 -13.6623 -13.5997 -13.5632 -13.2988 -13.2160 -13.1929
   -12.7870 -12.7711  -7.2402  -7.1193  -7.0337  -6.8959  -6.8646  -6.8008
    -6.7644  -6.6047  -6.5422  -6.4601  -6.2266  -6.1638  -6.1110  -5.7908
    -5.6890  -5.5868  -5.4950  -5.4147  -5.3412  -5.3217  -5.2763  -5.2410
    -5.1479  -5.0028  -4.7466  -4.7119  -4.6592  -4.6066  -4.5595  -4.4769
    -4.4186  -4.3869  -4.1699  -3.9355  -3.8794  -3.7529  -3.6910  -3.4854
    -3.3700  -3.3093  -3.1941  -3.1297  -2.9561  -2.9274  -2.8692  -2.8670
    -2.7539  -2.7273  -2.6572  -2.5822  -2.4771  -2.4292  -2.3006  -2.2626
    -2.1500  -1.9097  -1.8355  -1.8016  -1.0212  -0.9034  -0.6899  -0.5865
    -0.4745   0.7670   0.7982   0.8806   0.9271   0.9462   1.1233   1.1924
     1.2295   1.2684   1.3991   1.4288   1.6642   1.7310   1.8382   1.8657
     1.8927   1.9905   2.0320   2.1069

          k = 0.1113-0.1929 0.0000 ( 71557 PWs)   bands (ev):

   -15.7036 -14.8266 -14.6348 -14.5263 -14.3993 -14.1716 -14.0880 -14.0195
   -13.9013 -13.7731 -13.6728 -13.6011 -13.5676 -13.3026 -13.2106 -13.1911
   -12.7848 -12.7710  -7.2305  -7.1196  -7.0226  -6.9041  -6.8773  -6.7991
    -6.7673  -6.5886  -6.5357  -6.4546  -6.2145  -6.1429  -6.0882  -5.7888
    -5.6879  -5.5919  -5.5145  -5.4175  -5.3627  -5.3412  -5.2827  -5.2624
    -5.1687  -5.0183  -4.7485  -4.7045  -4.6671  -4.6279  -4.5439  -4.4630
    -4.4070  -4.3782  -4.1716  -3.9193  -3.8564  -3.7591  -3.6928  -3.4941
    -3.3729  -3.3061  -3.1878  -3.1056  -2.9382  -2.9222  -2.8869  -2.8585
    -2.7720  -2.7342  -2.6575  -2.5790  -2.4733  -2.4375  -2.3183  -2.2748
    -2.1706  -1.9053  -1.8398  -1.8070  -1.0018  -0.8992  -0.6943  -0.5736
    -0.4718   0.7615   0.7839   0.8873   0.9298   0.9506   1.1173   1.1875
     1.2234   1.2569   1.3902   1.4118   1.6753   1.7526   1.8421   1.8650
     1.9095   2.0045   2.0293   2.1238

          k = 0.1034-0.1791 0.0000 ( 71559 PWs)   bands (ev):

   -15.7115 -14.8044 -14.6217 -14.5309 -14.4053 -14.1769 -14.1015 -14.0100
   -13.8970 -13.7776 -13.6833 -13.6021 -13.5718 -13.3065 -13.2054 -13.1892
   -12.7827 -12.7707  -7.2227  -7.1174  -7.0116  -6.9119  -6.8892  -6.7992
    -6.7691  -6.5738  -6.5305  -6.4472  -6.2005  -6.1226  -6.0639  -5.7872
    -5.6874  -5.5985  -5.5350  -5.4199  -5.3885  -5.3556  -5.2983  -5.2747
    -5.1894  -5.0337  -4.7504  -4.6995  -4.6747  -4.6464  -4.5260  -4.4482
    -4.3956  -4.3695  -4.1737  -3.9040  -3.8342  -3.7651  -3.6952  -3.5016
    -3.3750  -3.3029  -3.1836  -3.0808  -2.9419  -2.9120  -2.8921  -2.8496
    -2.7872  -2.7459  -2.6533  -2.5766  -2.4705  -2.4433  -2.3358  -2.2870
    -2.1916  -1.9009  -1.8442  -1.8125  -0.9833  -0.8951  -0.6996  -0.5601
    -0.4689   0.7554   0.7687   0.8949   0.9338   0.9561   1.1114   1.1831
     1.2179   1.2453   1.3807   1.3951   1.6860   1.7713   1.8419   1.8657
     1.9276   2.0166   2.0308   2.1409

          k = 0.0954-0.1653 0.0000 ( 71559 PWs)   bands (ev):

   -15.7188 -14.7821 -14.6092 -14.5352 -14.4113 -14.1821 -14.1158 -13.9995
   -13.8930 -13.7822 -13.6938 -13.6030 -13.5759 -13.3106 -13.2006 -13.1872
   -12.7807 -12.7705  -7.2173  -7.1121  -7.0010  -6.9194  -6.9002  -6.8015
    -6.7693  -6.5612  -6.5266  -6.4371  -6.1847  -6.1027  -6.0385  -5.7859
    -5.6878  -5.6066  -5.5562  -5.4222  -5.4153  -5.3680  -5.3211  -5.2802
    -5.2093  -5.0487  -4.7523  -4.7005  -4.6818  -4.6567  -4.5081  -4.4330
    -4.3845  -4.3609  -4.1760  -3.8896  -3.8134  -3.7707  -3.6980  -3.5075
    -3.3765  -3.3000  -3.1807  -3.0563  -2.9495  -2.9285  -2.8701  -2.8439
    -2.7966  -2.7595  -2.6468  -2.5755  -2.4687  -2.4466  -2.3532  -2.2990
    -2.2127  -1.8964  -1.8486  -1.8178  -0.9657  -0.8911  -0.7055  -0.5461
    -0.4658   0.7489   0.7533   0.9034   0.9390   0.9624   1.1056   1.1790
     1.2129   1.2336   1.3702   1.3793   1.6961   1.7854   1.8412   1.8684
     1.9445   2.0188   2.0446   2.1580

          k = 0.0875-0.1516 0.0000 ( 71577 PWs)   bands (ev):

   -15.7255 -14.7598 -14.5975 -14.5392 -14.4173 -14.1870 -14.1303 -13.9886
   -13.8895 -13.7871 -13.7041 -13.6035 -13.5797 -13.3148 -13.1962 -13.1852
   -12.7788 -12.7701  -7.2142  -7.1037  -6.9910  -6.9264  -6.9103  -6.8060
    -6.7679  -6.5515  -6.5241  -6.4241  -6.1670  -6.0832  -6.0121  -5.7850
    -5.6891  -5.6166  -5.5777  -5.4419  -5.4240  -5.3794  -5.3456  -5.2844
    -5.2280  -5.0634  -4.7540  -4.7086  -4.6881  -4.6572  -4.4907  -4.4178
    -4.3738  -4.3527  -4.1784  -3.8764  -3.7948  -3.7754  -3.7012  -3.5110
    -3.3776  -3.2975  -3.1787  -3.0331  -2.9582  -2.9469  -2.8552  -2.8383
    -2.7980  -2.7715  -2.6394  -2.5756  -2.4683  -2.4473  -2.3704  -2.3108
    -2.2338  -1.8921  -1.8529  -1.8232  -0.9492  -0.8871  -0.7116  -0.5322
    -0.4626   0.7372   0.7427   0.9129   0.9453   0.9690   1.1000   1.1755
     1.2080   1.2220   1.3580   1.3654   1.7056   1.7925   1.8444   1.8720
     1.9597   2.0178   2.0637   2.1747

          k = 0.0795-0.1378 0.0000 ( 71575 PWs)   bands (ev):

   -15.7317 -14.7375 -14.5866 -14.5428 -14.4234 -14.1917 -14.1446 -13.9774
   -13.8864 -13.7924 -13.7142 -13.6039 -13.5833 -13.3189 -13.1920 -13.1833
   -12.7771 -12.7698  -7.2131  -7.0926  -6.9819  -6.9331  -6.9194  -6.8122
    -6.7651  -6.5449  -6.5229  -6.4079  -6.1475  -6.0638  -5.9850  -5.7843
    -5.6921  -5.6284  -5.5988  -5.4678  -5.4257  -5.3911  -5.3697  -5.2885
    -5.2449  -5.0773  -4.7557  -4.7193  -4.6941  -4.6525  -4.4741  -4.4027
    -4.3637  -4.3450  -4.1809  -3.8642  -3.7847  -3.7735  -3.7046  -3.5118
    -3.3783  -3.2957  -3.1771  -3.0136  -2.9666  -2.9636  -2.8604  -2.8227
    -2.7982  -2.7738  -2.6318  -2.5765  -2.4693  -2.4455  -2.3872  -2.3222
    -2.2549  -1.8881  -1.8570  -1.8284  -0.9339  -0.8831  -0.7179  -0.5186
    -0.4593   0.7219   0.7360   0.9231   0.9524   0.9758   1.0948   1.1725
     1.2026   1.2109   1.3442   1.3539   1.7143   1.7925   1.8524   1.8758
     1.9733   2.0171   2.0843   2.1909

          k = 0.0716-0.1240 0.0000 ( 71579 PWs)   bands (ev):

   -15.7373 -14.7153 -14.5766 -14.5461 -14.4298 -14.1963 -14.1583 -13.9661
   -13.8837 -13.7980 -13.7238 -13.6039 -13.5865 -13.3229 -13.1883 -13.1814
   -12.7756 -12.7694  -7.2135  -7.0794  -6.9739  -6.9392  -6.9273  -6.8199
    -6.7612  -6.5409  -6.5228  -6.3893  -6.1264  -6.0447  -5.9575  -5.7840
    -5.6977  -5.6418  -5.6185  -5.4929  -5.4271  -5.4069  -5.3893  -5.2927
    -5.2600  -5.0904  -4.7572  -4.7293  -4.6996  -4.6462  -4.4583  -4.3881
    -4.3542  -4.3379  -4.1834  -3.8533  -3.7876  -3.7608  -3.7081  -3.5092
    -3.3787  -3.2948  -3.1756  -3.0058  -2.9810  -2.9639  -2.8697  -2.8230
    -2.7883  -2.7651  -2.6247  -2.5776  -2.4717  -2.4420  -2.4036  -2.3333
    -2.2758  -1.8844  -1.8607  -1.8334  -0.9197  -0.8793  -0.7241  -0.5054
    -0.4562   0.7072   0.7296   0.9339   0.9601   0.9827   1.0900   1.1698
     1.1956   1.2014   1.3305   1.3431   1.7222   1.7887   1.8622   1.8798
     1.9853   2.0172   2.1053   2.2064

          k = 0.0636-0.1102 0.0000 ( 71579 PWs)   bands (ev):

   -15.7423 -14.6932 -14.5676 -14.5491 -14.4368 -14.2005 -14.1711 -13.9548
   -13.8814 -13.8040 -13.7328 -13.6038 -13.5895 -13.3267 -13.1850 -13.1796
   -12.7742 -12.7690  -7.2147  -7.0647  -6.9672  -6.9448  -6.9341  -6.8287
    -6.7566  -6.5389  -6.5239  -6.3690  -6.1039  -6.0258  -5.9297  -5.7841
    -5.7071  -5.6566  -5.6355  -5.5167  -5.4306  -5.4280  -5.4009  -5.2971
    -5.2731  -5.1022  -4.7585  -4.7378  -4.7046  -4.6395  -4.4434  -4.3743
    -4.3453  -4.3315  -4.1857  -3.8436  -3.7917  -3.7495  -3.7117  -3.5031
    -3.3790  -3.2951  -3.1741  -3.0137  -2.9952  -2.9496  -2.8787  -2.8350
    -2.7698  -2.7529  -2.6184  -2.5779  -2.4753  -2.4380  -2.4187  -2.3438
    -2.2962  -1.8813  -1.8638  -1.8382  -0.9068  -0.8755  -0.7302  -0.4930
    -0.4532   0.6932   0.7234   0.9453   0.9682   0.9894   1.0859   1.1672
     1.1866   1.1938   1.3179   1.3327   1.7293   1.7834   1.8716   1.8836
     1.9960   2.0184   2.1263   2.2208

          k = 0.0557-0.0964 0.0000 ( 71573 PWs)   bands (ev):

   -15.7467 -14.6714 -14.5598 -14.5516 -14.4444 -14.2046 -14.1828 -13.9435
   -13.8794 -13.8105 -13.7412 -13.6035 -13.5921 -13.3304 -13.1820 -13.1779
   -12.7729 -12.7687  -7.2164  -7.0490  -6.9623  -6.9498  -6.9391  -6.8386
    -6.7514  -6.5382  -6.5259  -6.3478  -6.0801  -6.0072  -5.9020  -5.7848
    -5.7212  -5.6723  -5.6486  -5.5390  -5.4569  -5.4291  -5.4090  -5.3015
    -5.2843  -5.1126  -4.7596  -4.7446  -4.7093  -4.6331  -4.4295  -4.3616
    -4.3374  -4.3260  -4.1878  -3.8351  -3.7955  -3.7409  -3.7150  -3.4935
    -3.3792  -3.2970  -3.1722  -3.0269  -3.0091  -2.9314  -2.8864  -2.8481
    -2.7515  -2.7400  -2.6136  -2.5762  -2.4801  -2.4392  -2.4272  -2.3536
    -2.3162  -1.8794  -1.8657  -1.8427  -0.8953  -0.8718  -0.7360  -0.4815
    -0.4504   0.6802   0.7177   0.9569   0.9767   0.9957   1.0825   1.1631
     1.1786   1.1866   1.3068   1.3225   1.7356   1.7779   1.8796   1.8874
     2.0054   2.0205   2.1469   2.2340

          k = 0.0477-0.0827 0.0000 ( 71577 PWs)   bands (ev):

   -15.7506 -14.6498 -14.5546 -14.5522 -14.4530 -14.2083 -14.1931 -13.9324
   -13.8777 -13.8174 -13.7489 -13.6031 -13.5944 -13.3337 -13.1795 -13.1763
   -12.7719 -12.7683  -7.2182  -7.0327  -6.9599  -6.9542  -6.9418  -6.8495
    -6.7459  -6.5384  -6.5286  -6.3266  -6.0555  -5.9891  -5.8749  -5.7866
    -5.7385  -5.6886  -5.6580  -5.5595  -5.4844  -5.4299  -5.4154  -5.3057
    -5.2936  -5.1214  -4.7605  -4.7500  -4.7134  -4.6272  -4.4166  -4.3502
    -4.3303  -4.3213  -4.1896  -3.8279  -3.7990  -3.7348  -3.7180  -3.4808
    -3.3795  -3.3008  -3.1698  -3.0402  -3.0228  -2.9142  -2.8926  -2.8596
    -2.7348  -2.7273  -2.6110  -2.5718  -2.4860  -2.4507  -2.4241  -2.3627
    -2.3353  -1.8791  -1.8660  -1.8469  -0.8852  -0.8684  -0.7415  -0.4711
    -0.4478   0.6686   0.7125   0.9686   0.9853   1.0016   1.0800   1.1559
     1.1728   1.1801   1.2976   1.3126   1.7410   1.7727   1.8859   1.8909
     2.0137   2.0233   2.1667   2.2459

          k = 0.0398-0.0689 0.0000 ( 71587 PWs)   bands (ev):

   -15.7539 -14.6286 -14.5561 -14.5469 -14.4627 -14.2117 -14.2018 -13.9213
   -13.8764 -13.8248 -13.7555 -13.6026 -13.5964 -13.3367 -13.1774 -13.1749
   -12.7710 -12.7679  -7.2200  -7.0160  -6.9605  -6.9578  -6.9417  -6.8612
    -6.7404  -6.5390  -6.5317  -6.3063  -6.0302  -5.9716  -5.8494  -5.7906
    -5.7562  -5.7044  -5.6652  -5.5775  -5.5121  -5.4305  -5.4206  -5.3095
    -5.3011  -5.1288  -4.7612  -4.7541  -4.7171  -4.6220  -4.4049  -4.3405
    -4.3246  -4.3174  -4.1910  -3.8221  -3.8020  -3.7308  -3.7205  -3.4655
    -3.3798  -3.3068  -3.1667  -3.0521  -3.0363  -2.9028  -2.8961  -2.8667
    -2.7203  -2.7155  -2.6102  -2.5647  -2.4931  -2.4622  -2.4196  -2.3710
    -2.3533  -1.8801  -1.8650  -1.8506  -0.8765  -0.8652  -0.7464  -0.4620
    -0.4455   0.6583   0.7080   0.9798   0.9939   1.0070   1.0787   1.1468
     1.1646   1.1779   1.2902   1.3033   1.7455   1.7680   1.8906   1.8940
     2.0207   2.0266   2.1855   2.2563

          k = 0.0318-0.0551 0.0000 ( 71565 PWs)   bands (ev):

   -15.7565 -14.6079 -14.5576 -14.5424 -14.4738 -14.2147 -14.2089 -13.9105
   -13.8753 -13.8326 -13.7612 -13.6021 -13.5979 -13.3392 -13.1757 -13.1737
   -12.7703 -12.7676  -7.2216  -6.9991  -6.9625  -6.9608  -6.9402  -6.8739
    -6.7352  -6.5399  -6.5348  -6.2876  -6.0048  -5.9549  -5.8290  -5.7988
    -5.7687  -5.7179  -5.6715  -5.5924  -5.5395  -5.4310  -5.4248  -5.3129
    -5.3071  -5.1347  -4.7617  -4.7570  -4.7202  -4.6175  -4.3945  -4.3326
    -4.3207  -4.3138  -4.1921  -3.8174  -3.8045  -3.7285  -3.7225  -3.4483
    -3.3801  -3.3153  -3.1629  -3.0620  -3.0491  -2.9034  -2.8962  -2.8645
    -2.7083  -2.7050  -2.6106  -2.5556  -2.5011  -2.4717  -2.4156  -2.3787
    -2.3689  -1.8816  -1.8636  -1.8537  -0.8694  -0.8623  -0.7507  -0.4543
    -0.4436   0.6497   0.7041   0.9900   1.0021   1.0117   1.0790   1.1374
     1.1539   1.1785   1.2847   1.2948   1.7491   1.7642   1.8941   1.8966
     2.0266   2.0301   2.2034   2.2650

          k = 0.0239-0.0413 0.0000 ( 71569 PWs)   bands (ev):

   -15.7586 -14.5878 -14.5588 -14.5388 -14.4862 -14.2172 -14.2143 -13.8999
   -13.8745 -13.8409 -13.7657 -13.6016 -13.5992 -13.3412 -13.1744 -13.1728
   -12.7698 -12.7673  -7.2229  -6.9825  -6.9647  -6.9630  -6.9385  -6.8874
    -6.7306  -6.5408  -6.5377  -6.2716  -5.9799  -5.9394  -5.8220  -5.8120
    -5.7671  -5.7273  -5.6774  -5.6039  -5.5661  -5.4314  -5.4280  -5.3157
    -5.3116  -5.1392  -4.7621  -4.7591  -4.7228  -4.6140  -4.3857  -4.3264
    -4.3188  -4.3103  -4.1927  -3.8139  -3.8065  -3.7274  -3.7239  -3.4300
    -3.3804  -3.3261  -3.1587  -3.0697  -3.0607  -2.9059  -2.9004  -2.8556
    -2.6988  -2.6961  -2.6115  -2.5454  -2.5092  -2.4796  -2.4128  -2.3885
    -2.3790  -1.8830  -1.8622  -1.8562  -0.8638  -0.8599  -0.7542  -0.4481
    -0.4421   0.6429   0.7011   0.9984   1.0097   1.0158   1.0812   1.1287
     1.1423   1.1802   1.2806   1.2875   1.7518   1.7612   1.8967   1.8984
     2.0312   2.0332   2.2202   2.2720

          k = 0.0159-0.0276 0.0000 ( 71547 PWs)   bands (ev):

   -15.7601 -14.5683 -14.5597 -14.5363 -14.5000 -14.2192 -14.2180 -13.8896
   -13.8739 -13.8494 -13.7690 -13.6013 -13.6000 -13.3427 -13.1734 -13.1721
   -12.7695 -12.7670  -7.2238  -6.9688  -6.9660  -6.9620  -6.9371  -6.9016
    -6.7270  -6.5417  -6.5399  -6.2592  -5.9569  -5.9257  -5.8301  -5.8263
    -5.7532  -5.7321  -5.6822  -5.6117  -5.5906  -5.4319  -5.4301  -5.3178
    -5.3147  -5.1423  -4.7626  -4.7602  -4.7246  -4.6114  -4.3789  -4.3221
    -4.3182  -4.3074  -4.1931  -3.8117  -3.8078  -3.7270  -3.7248  -3.4113
    -3.3807  -3.3392  -3.1546  -3.0752  -3.0703  -2.9079  -2.9051  -2.8471
    -2.6919  -2.6894  -2.6125  -2.5352  -2.5161  -2.4861  -2.4111  -2.3993
    -2.3834  -1.8842  -1.8611  -1.8580  -0.8600  -0.8579  -0.7569  -0.4437
    -0.4410   0.6379   0.6989   1.0044   1.0160   1.0192   1.0855   1.1216
     1.1305   1.1821   1.2778   1.2818   1.7536   1.7592   1.8984   1.8997
     2.0345   2.0356   2.2356   2.2770

          k = 0.0080-0.0138 0.0000 ( 71550 PWs)   bands (ev):

   -15.7610 -14.5602 -14.5499 -14.5348 -14.5151 -14.2205 -14.2201 -13.8800
   -13.8735 -13.8580 -13.7710 -13.6011 -13.6004 -13.3436 -13.1729 -13.1716
   -12.7693 -12.7669  -7.2244  -6.9679  -6.9667  -6.9482  -6.9362  -6.9163
    -6.7247  -6.5426  -6.5410  -6.2513  -5.9385  -5.9154  -5.8411  -5.8387
    -5.7397  -5.7337  -5.6842  -5.6162  -5.6099  -5.4325  -5.4310  -5.3190
    -5.3166  -5.1441  -4.7630  -4.7607  -4.7258  -4.6099  -4.3745  -4.3196
    -4.3181  -4.3056  -4.1932  -3.8106  -3.8083  -3.7270  -3.7251  -3.3934
    -3.3809  -3.3538  -3.1514  -3.0784  -3.0768  -2.9092  -2.9081  -2.8414
    -2.6877  -2.6852  -2.6133  -2.5267  -2.5207  -2.4915  -2.4106  -2.4068
    -2.3854  -1.8849  -1.8606  -1.8589  -0.8580  -0.8564  -0.7585  -0.4410
    -0.4403   0.6348   0.6975   1.0078   1.0201   1.0218   1.0915   1.1164
     1.1201   1.1835   1.2758   1.2785   1.7543   1.7583   1.8994   1.9005
     2.0365   2.0372   2.2490   2.2800

          k = 0.0000 0.0000 0.0000 ( 71573 PWs)   bands (ev):

   -15.7613 -14.5604 -14.5355 -14.5339 -14.5287 -14.2210 -14.2206 -13.8743
   -13.8730 -13.8638 -13.7717 -13.6011 -13.6005 -13.3439 -13.1727 -13.1715
   -12.7692 -12.7668  -7.2246  -6.9681  -6.9670  -6.9360  -6.9351  -6.9290
    -6.7239  -6.5430  -6.5413  -6.2486  -5.9308  -5.9113  -5.8463  -5.8441
    -5.7344  -5.7340  -5.6840  -5.6180  -5.6176  -5.4328  -5.4311  -5.3195
    -5.3172  -5.1447  -4.7632  -4.7608  -4.7262  -4.6093  -4.3730  -4.3189
    -4.3180  -4.3050  -4.1933  -3.8105  -3.8083  -3.7271  -3.7252  -3.3818
    -3.3809  -3.3643  -3.1502  -3.0795  -3.0791  -2.9099  -2.9089  -2.8394
    -2.6862  -2.6837  -2.6136  -2.5232  -2.5222  -2.4940  -2.4108  -2.4091
    -2.3859  -1.8851  -1.8606  -1.8591  -0.8574  -0.8558  -0.7591  -0.4402
    -0.4400   0.6338   0.6971   1.0089   1.0213   1.0229   1.0955   1.1131
     1.1161   1.1840   1.2750   1.2775   1.7544   1.7582   1.8997   1.9008
     2.0372   2.0378   2.2560   2.2808

     Writing output data file ./out/3x3_MoS2_mo.save/

     init_run     :      2.23s CPU      2.28s WALL (       1 calls)
     electrons    :   6583.63s CPU   6668.57s WALL (       1 calls)

     Called by init_run:
     wfcinit      :      0.00s CPU      0.00s WALL (       1 calls)
     wfcinit:atom :      1.64s CPU      3.58s WALL (     100 calls)
     wfcinit:wfcr :   1965.69s CPU   1989.61s WALL (     100 calls)
     potinit      :      0.21s CPU      0.23s WALL (       1 calls)
     hinit0       :      0.99s CPU      0.99s WALL (       1 calls)

     Called by electrons:
     c_bands      :   6583.62s CPU   6668.56s WALL (       1 calls)
     v_of_rho     :      0.09s CPU      0.09s WALL (       1 calls)
     v_h          :      0.06s CPU      0.06s WALL (       1 calls)
     v_xc         :      0.03s CPU      0.03s WALL (       1 calls)

     Called by c_bands:
     init_us_2    :      1.51s CPU      1.58s WALL (     100 calls)
     cegterg      :   4512.66s CPU   4569.86s WALL (     130 calls)

     Called by sum_band:

     Called by *egterg:
     h_psi        :   2670.14s CPU   2734.82s WALL (    2147 calls)
     g_psi        :      1.96s CPU      1.97s WALL (    1917 calls)
     cdiaghg      :    197.93s CPU    198.28s WALL (    2017 calls)
     cegterg:over :   1065.66s CPU   1070.20s WALL (    1917 calls)
     cegterg:upda :    466.89s CPU    470.88s WALL (    1917 calls)
     cegterg:last :    335.95s CPU    337.83s WALL (     330 calls)

     Called by h_psi:
     h_psi:calbec :   1174.99s CPU   1179.33s WALL (    2147 calls)
     vloc_psi     :    737.14s CPU    790.96s WALL (    2147 calls)
     add_vuspsi   :    753.98s CPU    757.65s WALL (    2147 calls)

     General routines
     calbec       :   1174.98s CPU   1179.32s WALL (    2147 calls)
     fft          :      0.14s CPU      0.15s WALL (       4 calls)
     ffts         :      0.01s CPU      0.01s WALL (       1 calls)
     fftw         :    692.92s CPU    744.40s WALL (  281808 calls)
     interpolate  :      0.04s CPU      0.04s WALL (       1 calls)
     davcio       :      0.14s CPU      1.49s WALL (     200 calls)

     Parallel routines
     fft_scatt_xy :     70.14s CPU     73.93s WALL (  281813 calls)
     fft_scatt_yz :    250.69s CPU    274.27s WALL (  281813 calls)

     PWSCF        :      1h49m CPU      1h51m WALL


   This run was terminated on:  21:15:39   3Jun2022            

=------------------------------------------------------------------------------=
   JOB DONE.
=------------------------------------------------------------------------------=
