
     Program PWSCF v.6.5Max starts on 25May2022 at 11:25:18 

     This program is part of the open-source Quantum ESPRESSO suite
     for quantum simulation of materials; please cite
         "P. Giannozzi et al., J. Phys.:Condens. Matter 21 395502 (2009);
         "P. Giannozzi et al., J. Phys.:Condens. Matter 29 465901 (2017);
          URL http://www.quantum-espresso.org", 
     in publications or presentations arising from this work. More details at
     http://www.quantum-espresso.org/quote

     Parallel version (MPI), running on    16 processors

     MPI processes distributed on     1 nodes
     R & G space division:  proc/nbgrp/npool/nimage =      16
     Waiting for input...
     Reading input from standard input

     Current dimensions of program PWSCF are:
     Max number of different atomic species (ntypx) = 10
     Max number of k-points (npk) =  40000
     Max angular momentum in pseudopotentials (lmaxx) =  3
               file Mo.pw-mt_fhi.UPF: wavefunction(s)  4f renormalized
               file S.pw-mt_fhi.UPF: wavefunction(s)  4f renormalized

     -------------------------------------------------
     Parameters for Dispersion (Grimme-D2) Correction:
     -------------------------------------------------
       atom      VdW radius       C_6     

        Mo         3.097        855.833
        S          3.180        193.230

     Subspace diagonalization in iterative solution of the eigenvalue problem:
     a serial algorithm will be used

     Message from routine setup:
     no reason to have ecutrho>4*ecutwfc

     Parallelization info
     --------------------
     sticks:   dense  smooth     PW     G-vecs:    dense   smooth      PW
     Min         795     318     87               141401    35774    5125
     Max         796     319     88               141408    35781    5132
     Sum       12727    5089   1393              2262485   572393   82025



     bravais-lattice index     =            0
     lattice parameter (alat)  =      17.5735  a.u.
     unit-cell volume          =    9116.3971 (a.u.)^3
     number of atoms/cell      =           26
     number of atomic types    =            2
     number of electrons       =       156.00
     number of Kohn-Sham states=           78
     kinetic-energy cutoff     =      60.0000  Ry
     charge density cutoff     =     600.0000  Ry
     convergence threshold     =      1.0E-04
     mixing beta               =       0.3000
     number of iterations used =            8  plain     mixing
     Exchange-correlation= SLA-PW
                           (   1   4   0   0   0   0   0)
     nstep                     =          400


     celldm(1)=  17.573519  celldm(2)=   0.000000  celldm(3)=   0.000000
     celldm(4)=   0.000000  celldm(5)=   0.000000  celldm(6)=   0.000000

     crystal axes: (cart. coord. in units of alat)
               a(1) = (   0.998112   0.000041   0.000000 )  
               a(2) = (  -0.499020   0.864411   0.000000 )  
               a(3) = (   0.000000   0.000000   1.946870 )  

     reciprocal axes: (cart. coord. in units 2 pi/alat)
               b(1) = (  1.001868  0.578373 -0.000000 )  
               b(2) = ( -0.000048  1.156829  0.000000 )  
               b(3) = (  0.000000 -0.000000  0.513645 )  


     PseudoPot. # 1 for Mo read from file:
     ./Mo.pw-mt_fhi.UPF
     MD5 check sum: 39557091c5c29ab518dcc42d2770f0a9
     Pseudo is Norm-conserving, Zval =  6.0
     Generated using FHI98PP, converted with fhi2upf.x v.5.0.1
     Using radial grid of  541 points,  3 beta functions with: 
                l(1) =   0
                l(2) =   2
                l(3) =   3

     PseudoPot. # 2 for S  read from file:
     ./S.pw-mt_fhi.UPF
     MD5 check sum: 498597b413bac406373b42162ed9f1a5
     Pseudo is Norm-conserving, Zval =  6.0
     Generated using FHI98PP, converted with fhi2upf.x v.5.0.1
     Using radial grid of  501 points,  3 beta functions with: 
                l(1) =   0
                l(2) =   1
                l(3) =   3

     atomic species   valence    mass     pseudopotential
        Mo             6.00    95.95000     Mo( 1.00)
        S              6.00    32.06500     S ( 1.00)

     No symmetry found



   Cartesian axes

     site n.     atom                  positions (alat units)
         1           Mo  tau(   1) = (   0.1664053   0.0953618   1.1999835  )
         2           S   tau(   2) = (   0.0000580   0.1914123   1.3659501  )
         3           S   tau(   3) = (   0.0000580   0.1914123   1.0340168  )
         4           Mo  tau(   4) = (  -0.0000726   0.3835341   1.1999835  )
         5           S   tau(   5) = (  -0.1665330   0.4795004   1.3660585  )
         6           S   tau(   6) = (  -0.1665330   0.4795004   1.0339084  )
         7           Mo  tau(   7) = (  -0.1666408   0.6715665   1.1999835  )
         8           S   tau(   8) = (  -0.3330759   0.7676579   1.3659438  )
         9           S   tau(   9) = (  -0.3330759   0.7676579   1.0340231  )
        10           Mo  tau(  10) = (   0.4991331   0.0951273   1.1999835  )
        11           S   tau(  11) = (   0.3328814   0.1912597   1.3660660  )
        12           S   tau(  12) = (   0.3328814   0.1912597   1.0339009  )
        13           S   tau(  13) = (   0.1662905   0.4793486   1.3661733  )
        14           S   tau(  14) = (   0.1662905   0.4793486   1.0337937  )
        15           Mo  tau(  15) = (   0.1660867   0.6713305   1.1999835  )
        16           S   tau(  16) = (  -0.0002528   0.7675063   1.3660585  )
        17           S   tau(  17) = (  -0.0002528   0.7675063   1.0339084  )
        18           Mo  tau(  18) = (   0.8319367   0.0950376   1.1999835  )
        19           S   tau(  19) = (   0.6656700   0.1910317   1.3659566  )
        20           S   tau(  20) = (   0.6656700   0.1910317   1.0340103  )
        21           Mo  tau(  21) = (   0.6654571   0.3832090   1.1999835  )
        22           S   tau(  22) = (   0.4990782   0.4791210   1.3660660  )
        23           S   tau(  23) = (   0.4990782   0.4791211   1.0339009  )
        24           Mo  tau(  24) = (   0.4988902   0.6712425   1.1999835  )
        25           S   tau(  25) = (   0.3325343   0.7672783   1.3659501  )
        26           S   tau(  26) = (   0.3325344   0.7672783   1.0340168  )

     number of k points=    52
                       cart. coord. in units 2pi/alat
        k(    1) = (   0.0000000   0.0000000   0.0000000), wk =   0.0200000
        k(    2) = (  -0.0000048   0.1156829   0.0000000), wk =   0.0400000
        k(    3) = (  -0.0000096   0.2313658   0.0000000), wk =   0.0400000
        k(    4) = (  -0.0000144   0.3470488   0.0000000), wk =   0.0400000
        k(    5) = (  -0.0000192   0.4627317   0.0000000), wk =   0.0400000
        k(    6) = (   0.0000240  -0.5784146   0.0000000), wk =   0.0200000
        k(    7) = (   0.1001819   0.1735202   0.0000000), wk =   0.0400000
        k(    8) = (   0.1001771   0.2892031   0.0000000), wk =   0.0400000
        k(    9) = (   0.1001723   0.4048861   0.0000000), wk =   0.0400000
        k(   10) = (   0.1001675   0.5205690   0.0000000), wk =   0.0400000
        k(   11) = (   0.1002108  -0.5205773   0.0000000), wk =   0.0400000
        k(   12) = (   0.1002060  -0.4048944   0.0000000), wk =   0.0400000
        k(   13) = (   0.1002012  -0.2892115   0.0000000), wk =   0.0400000
        k(   14) = (   0.1001964  -0.1735285   0.0000000), wk =   0.0400000
        k(   15) = (   0.1001916  -0.0578456   0.0000000), wk =   0.0400000
        k(   16) = (   0.2003639   0.3470404   0.0000000), wk =   0.0400000
        k(   17) = (   0.2003591   0.4627233   0.0000000), wk =   0.0400000
        k(   18) = (   0.2003543   0.5784063   0.0000000), wk =   0.0400000
        k(   19) = (   0.2003975  -0.4627400   0.0000000), wk =   0.0400000
        k(   20) = (   0.2003927  -0.3470571   0.0000000), wk =   0.0400000
        k(   21) = (   0.2003879  -0.2313742   0.0000000), wk =   0.0400000
        k(   22) = (   0.2003831  -0.1156912   0.0000000), wk =   0.0400000
        k(   23) = (   0.3005458   0.5205606   0.0000000), wk =   0.0400000
        k(   24) = (   0.3005410   0.6362436   0.0000000), wk =   0.0400000
        k(   25) = (   0.3005843  -0.4049027   0.0000000), wk =   0.0400000
        k(   26) = (   0.3005795  -0.2892198   0.0000000), wk =   0.0400000
        k(   27) = (   0.3005747  -0.1735369   0.0000000), wk =   0.0400000
        k(   28) = (   0.4007278   0.6940809   0.0000000), wk =   0.0400000
        k(   29) = (   0.4007710  -0.3470654   0.0000000), wk =   0.0400000
        k(   30) = (   0.4007662  -0.2313825   0.0000000), wk =   0.0400000
        k(   31) = (  -0.5009097  -0.8676011   0.0000000), wk =   0.0200000
        k(   32) = (  -0.1001868  -0.0578373   0.0000000), wk =   0.0400000
        k(   33) = (  -0.2003735  -0.1156746   0.0000000), wk =   0.0400000
        k(   34) = (  -0.3005603  -0.1735119   0.0000000), wk =   0.0400000
        k(   35) = (  -0.4007470  -0.2313492   0.0000000), wk =   0.0400000
        k(   36) = (   0.5009338   0.2891865   0.0000000), wk =   0.0200000
        k(   37) = (  -0.2003687  -0.2313575   0.0000000), wk =   0.0400000
        k(   38) = (  -0.3005555  -0.2891948   0.0000000), wk =   0.0400000
        k(   39) = (  -0.4007422  -0.3470321   0.0000000), wk =   0.0400000
        k(   40) = (   0.5009386   0.1735036   0.0000000), wk =   0.0400000
        k(   41) = (   0.4007518   0.1156663   0.0000000), wk =   0.0400000
        k(   42) = (   0.3005651   0.0578290   0.0000000), wk =   0.0400000
        k(   43) = (   0.2003783  -0.0000083   0.0000000), wk =   0.0400000
        k(   44) = (  -0.3005506  -0.4048777   0.0000000), wk =   0.0400000
        k(   45) = (  -0.4007374  -0.4627150   0.0000000), wk =   0.0400000
        k(   46) = (   0.5009434   0.0578207   0.0000000), wk =   0.0400000
        k(   47) = (   0.4007566  -0.0000166   0.0000000), wk =   0.0400000
        k(   48) = (   0.3005699  -0.0578539   0.0000000), wk =   0.0400000
        k(   49) = (  -0.4007326  -0.5783979   0.0000000), wk =   0.0400000
        k(   50) = (   0.5009482  -0.0578623   0.0000000), wk =   0.0400000
        k(   51) = (   0.4007614  -0.1156996   0.0000000), wk =   0.0400000
        k(   52) = (   0.5009530  -0.1735452   0.0000000), wk =   0.0400000

     Dense  grid:  2262485 G-vectors     FFT dimensions: ( 144, 144, 270)

     Smooth grid:   572393 G-vectors     FFT dimensions: (  90,  90, 180)

     Estimated max dynamical RAM per process >     460.85 MB

     Estimated total dynamical RAM >       7.20 GB

     Initial potential from superposition of free atoms

     starting charge  155.98644, renormalised to  156.00000

     negative rho (up, down):  1.427E-02 0.000E+00
     Starting wfcs are  416 randomized atomic wfcs

     total cpu time spent up to now is      955.7 secs

     Self-consistent Calculation

     iteration #  1     ecut=    60.00 Ry     beta= 0.30
     Davidson diagonalization with overlap
     ethr =  1.00E-02,  avg # of iterations =  2.0

     negative rho (up, down):  9.702E-03 0.000E+00

     total cpu time spent up to now is     1261.3 secs

     total energy              =    -496.58045537 Ry
     Harris-Foulkes estimate   =    -502.91970201 Ry
     estimated scf accuracy    <      13.66828025 Ry

     iteration #  2     ecut=    60.00 Ry     beta= 0.30
     Davidson diagonalization with overlap
     ethr =  8.76E-03,  avg # of iterations =  3.3

     negative rho (up, down):  6.190E-03 0.000E+00

     total cpu time spent up to now is     1655.0 secs

     total energy              =    -499.78854386 Ry
     Harris-Foulkes estimate   =    -502.62501647 Ry
     estimated scf accuracy    <      10.60029948 Ry

     iteration #  3     ecut=    60.00 Ry     beta= 0.30
     Davidson diagonalization with overlap
     ethr =  6.80E-03,  avg # of iterations =  2.5

     negative rho (up, down):  4.085E-03 0.000E+00

     total cpu time spent up to now is     1905.8 secs

     total energy              =    -500.56589608 Ry
     Harris-Foulkes estimate   =    -500.72874899 Ry
     estimated scf accuracy    <       1.28582118 Ry

     iteration #  4     ecut=    60.00 Ry     beta= 0.30
     Davidson diagonalization with overlap
     ethr =  8.24E-04,  avg # of iterations =  6.5

     negative rho (up, down):  2.751E-03 0.000E+00

     total cpu time spent up to now is     2342.5 secs

     total energy              =    -501.03199986 Ry
     Harris-Foulkes estimate   =    -501.06465695 Ry
     estimated scf accuracy    <       0.14969680 Ry

     iteration #  5     ecut=    60.00 Ry     beta= 0.30
     Davidson diagonalization with overlap
     c_bands:  1 eigenvalues not converged
     c_bands:  1 eigenvalues not converged
     ethr =  9.60E-05,  avg # of iterations =  7.8

     negative rho (up, down):  1.861E-03 0.000E+00

     total cpu time spent up to now is     2752.0 secs

     total energy              =    -501.08789821 Ry
     Harris-Foulkes estimate   =    -501.13502653 Ry
     estimated scf accuracy    <       0.43556085 Ry

     iteration #  6     ecut=    60.00 Ry     beta= 0.30
     Davidson diagonalization with overlap
     c_bands:  1 eigenvalues not converged
     c_bands:  2 eigenvalues not converged
     ethr =  9.60E-05,  avg # of iterations =  4.1

     negative rho (up, down):  1.265E-03 0.000E+00

     total cpu time spent up to now is     2980.7 secs

     total energy              =    -501.05004854 Ry
     Harris-Foulkes estimate   =    -501.10765061 Ry
     estimated scf accuracy    <       0.33041379 Ry

     iteration #  7     ecut=    60.00 Ry     beta= 0.30
     Davidson diagonalization with overlap
     ethr =  9.60E-05,  avg # of iterations =  4.1

     negative rho (up, down):  8.375E-04 0.000E+00

     total cpu time spent up to now is     3286.9 secs

     total energy              =    -501.07419760 Ry
     Harris-Foulkes estimate   =    -501.07653786 Ry
     estimated scf accuracy    <       0.04245088 Ry

     iteration #  8     ecut=    60.00 Ry     beta= 0.30
     Davidson diagonalization with overlap
     ethr =  2.72E-05,  avg # of iterations =  3.0

     negative rho (up, down):  5.516E-04 0.000E+00

     total cpu time spent up to now is     3512.2 secs

     total energy              =    -501.06937383 Ry
     Harris-Foulkes estimate   =    -501.07708221 Ry
     estimated scf accuracy    <       0.04151906 Ry

     iteration #  9     ecut=    60.00 Ry     beta= 0.30
     Davidson diagonalization with overlap
     ethr =  2.66E-05,  avg # of iterations =  3.5

     negative rho (up, down):  3.657E-04 0.000E+00

     total cpu time spent up to now is     3799.8 secs

     total energy              =    -501.07110106 Ry
     Harris-Foulkes estimate   =    -501.07650137 Ry
     estimated scf accuracy    <       0.02346394 Ry

     iteration # 10     ecut=    60.00 Ry     beta= 0.30
     Davidson diagonalization with overlap
     c_bands:  1 eigenvalues not converged
     c_bands:  1 eigenvalues not converged
     c_bands:  1 eigenvalues not converged
     c_bands:  1 eigenvalues not converged
     c_bands:  1 eigenvalues not converged
     ethr =  1.50E-05,  avg # of iterations =  4.4

     negative rho (up, down):  2.433E-04 0.000E+00

     total cpu time spent up to now is     4040.0 secs

     total energy              =    -501.07301792 Ry
     Harris-Foulkes estimate   =    -501.07474035 Ry
     estimated scf accuracy    <       0.00911301 Ry

     iteration # 11     ecut=    60.00 Ry     beta= 0.30
     Davidson diagonalization with overlap
     ethr =  5.84E-06,  avg # of iterations =  6.4

     negative rho (up, down):  1.609E-04 0.000E+00

     total cpu time spent up to now is     4361.7 secs

     total energy              =    -501.07612330 Ry
     Harris-Foulkes estimate   =    -501.07621517 Ry
     estimated scf accuracy    <       0.00379530 Ry

     iteration # 12     ecut=    60.00 Ry     beta= 0.30
     Davidson diagonalization with overlap
     ethr =  2.43E-06,  avg # of iterations =  1.1

     negative rho (up, down):  1.061E-04 0.000E+00

     total cpu time spent up to now is     4576.6 secs

     total energy              =    -501.07516130 Ry
     Harris-Foulkes estimate   =    -501.07619580 Ry
     estimated scf accuracy    <       0.00345982 Ry

     iteration # 13     ecut=    60.00 Ry     beta= 0.30
     Davidson diagonalization with overlap
     ethr =  2.22E-06,  avg # of iterations =  8.1

     negative rho (up, down):  7.084E-05 0.000E+00

     total cpu time spent up to now is     4978.2 secs

     total energy              =    -501.07741533 Ry
     Harris-Foulkes estimate   =    -501.07725184 Ry
     estimated scf accuracy    <       0.01092908 Ry

     iteration # 14     ecut=    60.00 Ry     beta= 0.30
     Davidson diagonalization with overlap
     ethr =  2.22E-06,  avg # of iterations =  1.0

     negative rho (up, down):  4.628E-05 0.000E+00

     total cpu time spent up to now is     5193.0 secs

     total energy              =    -501.07765263 Ry
     Harris-Foulkes estimate   =    -501.07744043 Ry
     estimated scf accuracy    <       0.01141830 Ry

     iteration # 15     ecut=    60.00 Ry     beta= 0.30
     Davidson diagonalization with overlap
     ethr =  2.22E-06,  avg # of iterations =  1.0

     negative rho (up, down):  3.112E-05 0.000E+00

     total cpu time spent up to now is     5407.8 secs

     total energy              =    -501.07703918 Ry
     Harris-Foulkes estimate   =    -501.07768167 Ry
     estimated scf accuracy    <       0.01263054 Ry

     iteration # 16     ecut=    60.00 Ry     beta= 0.30
     Davidson diagonalization with overlap
     ethr =  2.22E-06,  avg # of iterations =  1.0

     negative rho (up, down):  1.970E-05 0.000E+00

     total cpu time spent up to now is     5622.4 secs

     total energy              =    -501.07595052 Ry
     Harris-Foulkes estimate   =    -501.07712036 Ry
     estimated scf accuracy    <       0.01099482 Ry

     iteration # 17     ecut=    60.00 Ry     beta= 0.30
     Davidson diagonalization with overlap
     c_bands:  1 eigenvalues not converged
     c_bands:  1 eigenvalues not converged
     ethr =  2.22E-06,  avg # of iterations =  5.3

     negative rho (up, down):  1.328E-05 0.000E+00

     total cpu time spent up to now is     5886.7 secs

     total energy              =    -501.07605096 Ry
     Harris-Foulkes estimate   =    -501.07653552 Ry
     estimated scf accuracy    <       0.00388485 Ry

     iteration # 18     ecut=    60.00 Ry     beta= 0.30
     Davidson diagonalization with overlap
     ethr =  2.22E-06,  avg # of iterations =  6.9

     negative rho (up, down):  1.003E-05 0.000E+00

     total cpu time spent up to now is     6192.3 secs

     total energy              =    -501.07616101 Ry
     Harris-Foulkes estimate   =    -501.07705153 Ry
     estimated scf accuracy    <       0.00855333 Ry

     iteration # 19     ecut=    60.00 Ry     beta= 0.30
     Davidson diagonalization with overlap
     c_bands:  1 eigenvalues not converged
     c_bands:  1 eigenvalues not converged
     c_bands:  1 eigenvalues not converged
     ethr =  2.22E-06,  avg # of iterations =  3.6

     negative rho (up, down):  5.772E-06 0.000E+00

     total cpu time spent up to now is     6419.0 secs

     total energy              =    -501.07588674 Ry
     Harris-Foulkes estimate   =    -501.07645876 Ry
     estimated scf accuracy    <       0.00392706 Ry

     iteration # 20     ecut=    60.00 Ry     beta= 0.30
     Davidson diagonalization with overlap
     ethr =  2.22E-06,  avg # of iterations =  4.0

     negative rho (up, down):  4.373E-06 0.000E+00

     total cpu time spent up to now is     6676.2 secs

     total energy              =    -501.07592990 Ry
     Harris-Foulkes estimate   =    -501.07621400 Ry
     estimated scf accuracy    <       0.00115892 Ry

     iteration # 21     ecut=    60.00 Ry     beta= 0.30
     Davidson diagonalization with overlap
     ethr =  7.43E-07,  avg # of iterations =  9.3

     negative rho (up, down):  2.776E-06 0.000E+00

     total cpu time spent up to now is     7029.3 secs

     total energy              =    -501.07650455 Ry
     Harris-Foulkes estimate   =    -501.07667047 Ry
     estimated scf accuracy    <       0.00570127 Ry

     iteration # 22     ecut=    60.00 Ry     beta= 0.30
     Davidson diagonalization with overlap
     ethr =  7.43E-07,  avg # of iterations =  1.0

     negative rho (up, down):  1.122E-06 0.000E+00

     total cpu time spent up to now is     7248.7 secs

     total energy              =    -501.07589155 Ry
     Harris-Foulkes estimate   =    -501.07652132 Ry
     estimated scf accuracy    <       0.00508702 Ry

     iteration # 23     ecut=    60.00 Ry     beta= 0.30
     Davidson diagonalization with overlap
     c_bands:  1 eigenvalues not converged
     c_bands:  1 eigenvalues not converged
     c_bands:  1 eigenvalues not converged
     c_bands:  1 eigenvalues not converged
     ethr =  7.43E-07,  avg # of iterations = 12.2

     negative rho (up, down):  7.464E-07 0.000E+00

     total cpu time spent up to now is     7579.0 secs

     total energy              =    -501.07664816 Ry
     Harris-Foulkes estimate   =    -501.07667918 Ry
     estimated scf accuracy    <       0.00530236 Ry

     iteration # 24     ecut=    60.00 Ry     beta= 0.30
     Davidson diagonalization with overlap
     ethr =  7.43E-07,  avg # of iterations =  1.0

     negative rho (up, down):  4.940E-07 0.000E+00

     total cpu time spent up to now is     7796.1 secs

     total energy              =    -501.07685876 Ry
     Harris-Foulkes estimate   =    -501.07665534 Ry
     estimated scf accuracy    <       0.00521562 Ry

     iteration # 25     ecut=    60.00 Ry     beta= 0.30
     Davidson diagonalization with overlap
     ethr =  7.43E-07,  avg # of iterations =  1.0

     negative rho (up, down):  3.205E-07 0.000E+00

     total cpu time spent up to now is     8013.4 secs

     total energy              =    -501.07651117 Ry
     Harris-Foulkes estimate   =    -501.07686986 Ry
     estimated scf accuracy    <       0.00601279 Ry

     iteration # 26     ecut=    60.00 Ry     beta= 0.30
     Davidson diagonalization with overlap
     ethr =  7.43E-07,  avg # of iterations =  1.0

     negative rho (up, down):  5.075E-07 0.000E+00

     total cpu time spent up to now is     8232.4 secs

     total energy              =    -501.07640169 Ry
     Harris-Foulkes estimate   =    -501.07652404 Ry
     estimated scf accuracy    <       0.00510174 Ry

     iteration # 27     ecut=    60.00 Ry     beta= 0.30
     Davidson diagonalization with overlap
     ethr =  7.43E-07,  avg # of iterations =  1.0

     negative rho (up, down):  1.334E-06 0.000E+00

     total cpu time spent up to now is     8449.8 secs

     total energy              =    -501.07775362 Ry
     Harris-Foulkes estimate   =    -501.07641516 Ry
     estimated scf accuracy    <       0.00446893 Ry

     iteration # 28     ecut=    60.00 Ry     beta= 0.30
     Davidson diagonalization with overlap
     ethr =  7.43E-07,  avg # of iterations = 12.8

     negative rho (up, down):  5.859E-07 0.000E+00

     total cpu time spent up to now is     8940.2 secs

     total energy              =    -501.07734918 Ry
     Harris-Foulkes estimate   =    -501.08045588 Ry
     estimated scf accuracy    <       0.08412160 Ry

     iteration # 29     ecut=    60.00 Ry     beta= 0.30
     Davidson diagonalization with overlap
     ethr =  7.43E-07,  avg # of iterations = 11.1

     negative rho (up, down):  1.440E-07 0.000E+00

     total cpu time spent up to now is     9291.7 secs

     total energy              =    -501.07845299 Ry
     Harris-Foulkes estimate   =    -501.07800889 Ry
     estimated scf accuracy    <       0.03992285 Ry

     iteration # 30     ecut=    60.00 Ry     beta= 0.30
     Davidson diagonalization with overlap
     c_bands:  1 eigenvalues not converged
     c_bands:  1 eigenvalues not converged
     c_bands:  1 eigenvalues not converged
     c_bands:  1 eigenvalues not converged
     c_bands:  1 eigenvalues not converged
     c_bands:  1 eigenvalues not converged
     c_bands:  1 eigenvalues not converged
     c_bands:  1 eigenvalues not converged
     c_bands:  1 eigenvalues not converged
     ethr =  7.43E-07,  avg # of iterations = 15.5

     negative rho (up, down):  6.100E-07 0.000E+00

     total cpu time spent up to now is     9689.5 secs

     total energy              =    -501.07608251 Ry
     Harris-Foulkes estimate   =    -501.07890451 Ry
     estimated scf accuracy    <       0.05501946 Ry

     iteration # 31     ecut=    60.00 Ry     beta= 0.30
     Davidson diagonalization with overlap
     c_bands:  1 eigenvalues not converged
     ethr =  7.43E-07,  avg # of iterations = 14.2

     negative rho (up, down):  8.490E-07 0.000E+00

     total cpu time spent up to now is    10441.0 secs

     total energy              =    -501.07519160 Ry
     Harris-Foulkes estimate   =    -501.07689515 Ry
     estimated scf accuracy    <       0.01634963 Ry

     iteration # 32     ecut=    60.00 Ry     beta= 0.30
     Davidson diagonalization with overlap
     ethr =  7.43E-07,  avg # of iterations = 11.4

     negative rho (up, down):  2.578E-07 0.000E+00

     total cpu time spent up to now is    11354.0 secs

     total energy              =    -501.07635643 Ry
     Harris-Foulkes estimate   =    -501.07671211 Ry
     estimated scf accuracy    <       0.00457807 Ry

     iteration # 33     ecut=    60.00 Ry     beta= 0.30
     Davidson diagonalization with overlap
     c_bands:  1 eigenvalues not converged
     c_bands:  1 eigenvalues not converged
     c_bands:  1 eigenvalues not converged
     c_bands:  1 eigenvalues not converged
     c_bands:  1 eigenvalues not converged
     c_bands:  1 eigenvalues not converged
     ethr =  7.43E-07,  avg # of iterations =  9.4

     total cpu time spent up to now is    11853.6 secs

     total energy              =    -501.07630959 Ry
     Harris-Foulkes estimate   =    -501.07651379 Ry
     estimated scf accuracy    <       0.00289623 Ry

     iteration # 34     ecut=    60.00 Ry     beta= 0.30
     Davidson diagonalization with overlap
     c_bands:  1 eigenvalues not converged
     c_bands:  1 eigenvalues not converged
     c_bands:  1 eigenvalues not converged
     c_bands:  1 eigenvalues not converged
     ethr =  7.43E-07,  avg # of iterations =  5.2

     total cpu time spent up to now is    12330.5 secs

     total energy              =    -501.07626054 Ry
     Harris-Foulkes estimate   =    -501.07636101 Ry
     estimated scf accuracy    <       0.00180260 Ry

     iteration # 35     ecut=    60.00 Ry     beta= 0.30
     Davidson diagonalization with overlap
     c_bands:  1 eigenvalues not converged
     ethr =  7.43E-07,  avg # of iterations =  1.6

     total cpu time spent up to now is    12794.0 secs

     total energy              =    -501.07616491 Ry
     Harris-Foulkes estimate   =    -501.07628914 Ry
     estimated scf accuracy    <       0.00133216 Ry

     iteration # 36     ecut=    60.00 Ry     beta= 0.30
     Davidson diagonalization with overlap
     c_bands:  1 eigenvalues not converged
     c_bands:  1 eigenvalues not converged
     c_bands:  1 eigenvalues not converged
     c_bands:  1 eigenvalues not converged
     c_bands:  1 eigenvalues not converged
     c_bands:  1 eigenvalues not converged
     c_bands:  1 eigenvalues not converged
     c_bands:  1 eigenvalues not converged
     c_bands:  1 eigenvalues not converged
     c_bands:  1 eigenvalues not converged
     c_bands:  1 eigenvalues not converged
     c_bands:  1 eigenvalues not converged
     ethr =  7.43E-07,  avg # of iterations = 10.8

     total cpu time spent up to now is    13333.1 secs

     total energy              =    -501.07638172 Ry
     Harris-Foulkes estimate   =    -501.07645337 Ry
     estimated scf accuracy    <       0.00121697 Ry

     iteration # 37     ecut=    60.00 Ry     beta= 0.30
     Davidson diagonalization with overlap
     c_bands:  1 eigenvalues not converged
     c_bands:  1 eigenvalues not converged
     ethr =  7.43E-07,  avg # of iterations =  3.3

     total cpu time spent up to now is    13808.9 secs

     total energy              =    -501.07643705 Ry
     Harris-Foulkes estimate   =    -501.07640925 Ry
     estimated scf accuracy    <       0.00095499 Ry

     iteration # 38     ecut=    60.00 Ry     beta= 0.30
     Davidson diagonalization with overlap
     c_bands:  1 eigenvalues not converged
     ethr =  6.12E-07,  avg # of iterations =  1.4

     total cpu time spent up to now is    14279.7 secs

     total energy              =    -501.07638788 Ry
     Harris-Foulkes estimate   =    -501.07644370 Ry
     estimated scf accuracy    <       0.00107384 Ry

     iteration # 39     ecut=    60.00 Ry     beta= 0.30
     Davidson diagonalization with overlap
     ethr =  6.12E-07,  avg # of iterations =  1.0

     total cpu time spent up to now is    14748.4 secs

     total energy              =    -501.07631534 Ry
     Harris-Foulkes estimate   =    -501.07639299 Ry
     estimated scf accuracy    <       0.00090618 Ry

     iteration # 40     ecut=    60.00 Ry     beta= 0.30
     Davidson diagonalization with overlap
     c_bands:  1 eigenvalues not converged
     c_bands:  1 eigenvalues not converged
     c_bands:  1 eigenvalues not converged
     c_bands:  1 eigenvalues not converged
     c_bands:  1 eigenvalues not converged
     c_bands:  1 eigenvalues not converged
     c_bands:  1 eigenvalues not converged
     c_bands:  1 eigenvalues not converged
     ethr =  5.81E-07,  avg # of iterations = 10.2

     total cpu time spent up to now is    15271.4 secs

     total energy              =    -501.07639398 Ry
     Harris-Foulkes estimate   =    -501.07641414 Ry
     estimated scf accuracy    <       0.00021255 Ry

     iteration # 41     ecut=    60.00 Ry     beta= 0.30
     Davidson diagonalization with overlap
     c_bands:  1 eigenvalues not converged
     c_bands:  1 eigenvalues not converged
     c_bands:  1 eigenvalues not converged
     c_bands:  1 eigenvalues not converged
     c_bands:  1 eigenvalues not converged
     c_bands:  1 eigenvalues not converged
     c_bands:  1 eigenvalues not converged
     c_bands:  1 eigenvalues not converged
     c_bands:  1 eigenvalues not converged
     c_bands:  1 eigenvalues not converged
     c_bands:  1 eigenvalues not converged
     c_bands:  1 eigenvalues not converged
     ethr =  1.36E-07,  avg # of iterations = 11.9

     total cpu time spent up to now is    15794.3 secs

     total energy              =    -501.07642180 Ry
     Harris-Foulkes estimate   =    -501.07642238 Ry
     estimated scf accuracy    <       0.00010894 Ry

     iteration # 42     ecut=    60.00 Ry     beta= 0.30
     Davidson diagonalization with overlap
     c_bands:  1 eigenvalues not converged
     c_bands:  1 eigenvalues not converged
     c_bands:  1 eigenvalues not converged
     c_bands:  1 eigenvalues not converged
     ethr =  6.98E-08,  avg # of iterations =  6.1

     total cpu time spent up to now is    16275.3 secs

     total energy              =    -501.07644039 Ry
     Harris-Foulkes estimate   =    -501.07644373 Ry
     estimated scf accuracy    <       0.00029035 Ry

     iteration # 43     ecut=    60.00 Ry     beta= 0.30
     Davidson diagonalization with overlap
     c_bands:  1 eigenvalues not converged
     ethr =  6.98E-08,  avg # of iterations =  1.5

     total cpu time spent up to now is    16730.9 secs

     total energy              =    -501.07645026 Ry
     Harris-Foulkes estimate   =    -501.07644929 Ry
     estimated scf accuracy    <       0.00028336 Ry

     iteration # 44     ecut=    60.00 Ry     beta= 0.30
     Davidson diagonalization with overlap
     ethr =  6.98E-08,  avg # of iterations =  1.2

     total cpu time spent up to now is    17188.2 secs

     total energy              =    -501.07646295 Ry
     Harris-Foulkes estimate   =    -501.07645079 Ry
     estimated scf accuracy    <       0.00028853 Ry

     iteration # 45     ecut=    60.00 Ry     beta= 0.30
     Davidson diagonalization with overlap
     c_bands:  1 eigenvalues not converged
     c_bands:  1 eigenvalues not converged
     c_bands:  1 eigenvalues not converged
     c_bands:  1 eigenvalues not converged
     ethr =  6.98E-08,  avg # of iterations = 12.8

     total cpu time spent up to now is    17869.1 secs

     total energy              =    -501.07650098 Ry
     Harris-Foulkes estimate   =    -501.07651976 Ry
     estimated scf accuracy    <       0.00290904 Ry

     iteration # 46     ecut=    60.00 Ry     beta= 0.30
     Davidson diagonalization with overlap
     c_bands:  1 eigenvalues not converged
     c_bands:  1 eigenvalues not converged
     c_bands:  1 eigenvalues not converged
     c_bands:  1 eigenvalues not converged
     c_bands:  1 eigenvalues not converged
     c_bands:  1 eigenvalues not converged
     c_bands:  1 eigenvalues not converged
     c_bands:  1 eigenvalues not converged
     c_bands:  1 eigenvalues not converged
     c_bands:  1 eigenvalues not converged
     c_bands:  1 eigenvalues not converged
     c_bands:  1 eigenvalues not converged
     c_bands:  1 eigenvalues not converged
     c_bands:  1 eigenvalues not converged
     c_bands:  1 eigenvalues not converged
     c_bands:  1 eigenvalues not converged
     c_bands:  1 eigenvalues not converged
     c_bands:  1 eigenvalues not converged
     ethr =  6.98E-08,  avg # of iterations = 15.8

     total cpu time spent up to now is    18504.6 secs

     total energy              =    -501.07652803 Ry
     Harris-Foulkes estimate   =    -501.07657287 Ry
     estimated scf accuracy    <       0.00267683 Ry

     iteration # 47     ecut=    60.00 Ry     beta= 0.30
     Davidson diagonalization with overlap
     c_bands:  1 eigenvalues not converged
     c_bands:  1 eigenvalues not converged
     c_bands:  1 eigenvalues not converged
     c_bands:  1 eigenvalues not converged
     c_bands:  1 eigenvalues not converged
     c_bands:  1 eigenvalues not converged
     c_bands:  1 eigenvalues not converged
     c_bands:  1 eigenvalues not converged
     c_bands:  1 eigenvalues not converged
     c_bands:  1 eigenvalues not converged
     ethr =  6.98E-08,  avg # of iterations = 13.1

     total cpu time spent up to now is    19061.3 secs

     total energy              =    -501.07655461 Ry
     Harris-Foulkes estimate   =    -501.07655745 Ry
     estimated scf accuracy    <       0.00215887 Ry

     iteration # 48     ecut=    60.00 Ry     beta= 0.30
     Davidson diagonalization with overlap
     ethr =  6.98E-08,  avg # of iterations =  2.1

     total cpu time spent up to now is    19504.1 secs

     total energy              =    -501.07648997 Ry
     Harris-Foulkes estimate   =    -501.07655692 Ry
     estimated scf accuracy    <       0.00215835 Ry

     iteration # 49     ecut=    60.00 Ry     beta= 0.30
     Davidson diagonalization with overlap
     ethr =  6.98E-08,  avg # of iterations = 11.2

     total cpu time spent up to now is    20388.7 secs

     total energy              =    -501.07644304 Ry
     Harris-Foulkes estimate   =    -501.07667815 Ry
     estimated scf accuracy    <       0.00549998 Ry

     iteration # 50     ecut=    60.00 Ry     beta= 0.30
     Davidson diagonalization with overlap
     c_bands:  1 eigenvalues not converged
     c_bands:  1 eigenvalues not converged
     c_bands:  1 eigenvalues not converged
     ethr =  6.98E-08,  avg # of iterations = 15.6

     total cpu time spent up to now is    21110.8 secs

     total energy              =    -501.07649540 Ry
     Harris-Foulkes estimate   =    -501.07650552 Ry
     estimated scf accuracy    <       0.00199086 Ry

     iteration # 51     ecut=    60.00 Ry     beta= 0.30
     Davidson diagonalization with overlap
     ethr =  6.98E-08,  avg # of iterations =  1.0

     total cpu time spent up to now is    21554.9 secs

     total energy              =    -501.07649942 Ry
     Harris-Foulkes estimate   =    -501.07649611 Ry
     estimated scf accuracy    <       0.00195837 Ry

     iteration # 52     ecut=    60.00 Ry     beta= 0.30
     Davidson diagonalization with overlap
     ethr =  6.98E-08,  avg # of iterations =  1.0

     total cpu time spent up to now is    22006.7 secs

     total energy              =    -501.07636990 Ry
     Harris-Foulkes estimate   =    -501.07650060 Ry
     estimated scf accuracy    <       0.00194371 Ry

     iteration # 53     ecut=    60.00 Ry     beta= 0.30
     Davidson diagonalization with overlap
     c_bands:  1 eigenvalues not converged
     ethr =  6.98E-08,  avg # of iterations = 14.5

     total cpu time spent up to now is    22738.9 secs

     total energy              =    -501.07636692 Ry
     Harris-Foulkes estimate   =    -501.07647786 Ry
     estimated scf accuracy    <       0.00161027 Ry

     iteration # 54     ecut=    60.00 Ry     beta= 0.30
     Davidson diagonalization with overlap
     c_bands:  1 eigenvalues not converged
     c_bands:  1 eigenvalues not converged
     c_bands:  1 eigenvalues not converged
     c_bands:  1 eigenvalues not converged
     c_bands:  1 eigenvalues not converged
     c_bands:  1 eigenvalues not converged
     ethr =  6.98E-08,  avg # of iterations = 15.7

     total cpu time spent up to now is    23528.7 secs

     total energy              =    -501.07638395 Ry
     Harris-Foulkes estimate   =    -501.07652751 Ry
     estimated scf accuracy    <       0.00166664 Ry

     iteration # 55     ecut=    60.00 Ry     beta= 0.30
     Davidson diagonalization with overlap
     c_bands:  1 eigenvalues not converged
     c_bands:  1 eigenvalues not converged
     c_bands:  1 eigenvalues not converged
     c_bands:  1 eigenvalues not converged
     c_bands:  1 eigenvalues not converged
     c_bands:  1 eigenvalues not converged
     c_bands:  1 eigenvalues not converged
     c_bands:  1 eigenvalues not converged
     c_bands:  1 eigenvalues not converged
     c_bands:  1 eigenvalues not converged
     ethr =  6.98E-08,  avg # of iterations = 15.8

     total cpu time spent up to now is    24195.5 secs

     total energy              =    -501.07643850 Ry
     Harris-Foulkes estimate   =    -501.07646255 Ry
     estimated scf accuracy    <       0.00067077 Ry

     iteration # 56     ecut=    60.00 Ry     beta= 0.30
     Davidson diagonalization with overlap
     c_bands:  1 eigenvalues not converged
     c_bands:  1 eigenvalues not converged
     c_bands:  1 eigenvalues not converged
     c_bands:  1 eigenvalues not converged
     c_bands:  1 eigenvalues not converged
     c_bands:  1 eigenvalues not converged
     c_bands:  1 eigenvalues not converged
     c_bands:  1 eigenvalues not converged
     c_bands:  1 eigenvalues not converged
     c_bands:  1 eigenvalues not converged
     ethr =  6.98E-08,  avg # of iterations = 13.3

     total cpu time spent up to now is    24809.0 secs

     total energy              =    -501.07645376 Ry
     Harris-Foulkes estimate   =    -501.07647118 Ry
     estimated scf accuracy    <       0.00144538 Ry

     iteration # 57     ecut=    60.00 Ry     beta= 0.30
     Davidson diagonalization with overlap
     ethr =  6.98E-08,  avg # of iterations =  1.8

     total cpu time spent up to now is    25254.0 secs

     total energy              =    -501.07635708 Ry
     Harris-Foulkes estimate   =    -501.07645529 Ry
     estimated scf accuracy    <       0.00138195 Ry

     iteration # 58     ecut=    60.00 Ry     beta= 0.30
     Davidson diagonalization with overlap
     ethr =  6.98E-08,  avg # of iterations = 13.1

     total cpu time spent up to now is    26017.8 secs

     total energy              =    -501.07633765 Ry
     Harris-Foulkes estimate   =    -501.07658243 Ry
     estimated scf accuracy    <       0.00515486 Ry

     iteration # 59     ecut=    60.00 Ry     beta= 0.30
     Davidson diagonalization with overlap
     ethr =  6.98E-08,  avg # of iterations = 13.0

     total cpu time spent up to now is    26845.7 secs

     total energy              =    -501.07642074 Ry
     Harris-Foulkes estimate   =    -501.07648047 Ry
     estimated scf accuracy    <       0.00090089 Ry

     iteration # 60     ecut=    60.00 Ry     beta= 0.30
     Davidson diagonalization with overlap
     c_bands:  1 eigenvalues not converged
     ethr =  6.98E-08,  avg # of iterations =  5.2

     total cpu time spent up to now is    27323.6 secs

     total energy              =    -501.07641627 Ry
     Harris-Foulkes estimate   =    -501.07643376 Ry
     estimated scf accuracy    <       0.00035701 Ry

     iteration # 61     ecut=    60.00 Ry     beta= 0.30
     Davidson diagonalization with overlap
     ethr =  6.98E-08,  avg # of iterations =  2.1

     total cpu time spent up to now is    27775.4 secs

     total energy              =    -501.07643913 Ry
     Harris-Foulkes estimate   =    -501.07641937 Ry
     estimated scf accuracy    <       0.00026523 Ry

     iteration # 62     ecut=    60.00 Ry     beta= 0.30
     Davidson diagonalization with overlap
     ethr =  6.98E-08,  avg # of iterations =  1.9

     total cpu time spent up to now is    28217.6 secs

     total energy              =    -501.07641601 Ry
     Harris-Foulkes estimate   =    -501.07644135 Ry
     estimated scf accuracy    <       0.00034344 Ry

     iteration # 63     ecut=    60.00 Ry     beta= 0.30
     Davidson diagonalization with overlap
     c_bands:  1 eigenvalues not converged
     c_bands:  1 eigenvalues not converged
     ethr =  6.98E-08,  avg # of iterations =  5.2

     total cpu time spent up to now is    28679.1 secs

     total energy              =    -501.07641730 Ry
     Harris-Foulkes estimate   =    -501.07642161 Ry
     estimated scf accuracy    <       0.00019707 Ry

     iteration # 64     ecut=    60.00 Ry     beta= 0.30
     Davidson diagonalization with overlap
     ethr =  6.98E-08,  avg # of iterations =  1.7

     total cpu time spent up to now is    29130.3 secs

     total energy              =    -501.07641038 Ry
     Harris-Foulkes estimate   =    -501.07641872 Ry
     estimated scf accuracy    <       0.00017659 Ry

     iteration # 65     ecut=    60.00 Ry     beta= 0.30
     Davidson diagonalization with overlap
     c_bands:  1 eigenvalues not converged
     c_bands:  1 eigenvalues not converged
     c_bands:  1 eigenvalues not converged
     c_bands:  1 eigenvalues not converged
     c_bands:  1 eigenvalues not converged
     c_bands:  1 eigenvalues not converged
     c_bands:  1 eigenvalues not converged
     c_bands:  1 eigenvalues not converged
     c_bands:  1 eigenvalues not converged
     c_bands:  1 eigenvalues not converged
     c_bands:  1 eigenvalues not converged
     c_bands:  1 eigenvalues not converged
     c_bands:  1 eigenvalues not converged
     c_bands:  1 eigenvalues not converged
     c_bands:  1 eigenvalues not converged
     c_bands:  1 eigenvalues not converged
     c_bands:  1 eigenvalues not converged
     ethr =  6.98E-08,  avg # of iterations = 10.8

     total cpu time spent up to now is    29565.2 secs

     total energy              =    -501.07646457 Ry
     Harris-Foulkes estimate   =    -501.07648449 Ry
     estimated scf accuracy    <       0.00095882 Ry

     iteration # 66     ecut=    60.00 Ry     beta= 0.30
     Davidson diagonalization with overlap
     c_bands:  1 eigenvalues not converged
     c_bands:  1 eigenvalues not converged
     ethr =  6.98E-08,  avg # of iterations =  3.1

     total cpu time spent up to now is    29791.6 secs

     total energy              =    -501.07640470 Ry
     Harris-Foulkes estimate   =    -501.07646703 Ry
     estimated scf accuracy    <       0.00088702 Ry

     iteration # 67     ecut=    60.00 Ry     beta= 0.30
     Davidson diagonalization with overlap
     c_bands:  1 eigenvalues not converged
     c_bands:  1 eigenvalues not converged
     c_bands:  1 eigenvalues not converged
     c_bands:  1 eigenvalues not converged
     ethr =  6.98E-08,  avg # of iterations = 15.3

     total cpu time spent up to now is    30095.4 secs

     total energy              =    -501.07638015 Ry
     Harris-Foulkes estimate   =    -501.07652731 Ry
     estimated scf accuracy    <       0.00550752 Ry

     iteration # 68     ecut=    60.00 Ry     beta= 0.30
     Davidson diagonalization with overlap
     c_bands:  1 eigenvalues not converged
     c_bands:  1 eigenvalues not converged
     c_bands:  1 eigenvalues not converged
     c_bands:  1 eigenvalues not converged
     c_bands:  1 eigenvalues not converged
     c_bands:  1 eigenvalues not converged
     c_bands:  1 eigenvalues not converged
     c_bands:  1 eigenvalues not converged
     c_bands:  1 eigenvalues not converged
     c_bands:  1 eigenvalues not converged
     c_bands:  1 eigenvalues not converged
     c_bands:  1 eigenvalues not converged
     c_bands:  1 eigenvalues not converged
     c_bands:  1 eigenvalues not converged
     c_bands:  1 eigenvalues not converged
     c_bands:  1 eigenvalues not converged
     c_bands:  1 eigenvalues not converged
     c_bands:  1 eigenvalues not converged
     c_bands:  1 eigenvalues not converged
     c_bands:  1 eigenvalues not converged
     c_bands:  1 eigenvalues not converged
     ethr =  6.98E-08,  avg # of iterations = 16.2

     total cpu time spent up to now is    30380.8 secs

     total energy              =    -501.07645620 Ry
     Harris-Foulkes estimate   =    -501.07645705 Ry
     estimated scf accuracy    <       0.00016394 Ry

     iteration # 69     ecut=    60.00 Ry     beta= 0.30
     Davidson diagonalization with overlap
     c_bands:  1 eigenvalues not converged
     ethr =  6.98E-08,  avg # of iterations =  2.9

     total cpu time spent up to now is    30606.7 secs

     total energy              =    -501.07645787 Ry
     Harris-Foulkes estimate   =    -501.07645839 Ry
     estimated scf accuracy    <       0.00016505 Ry

     iteration # 70     ecut=    60.00 Ry     beta= 0.30
     Davidson diagonalization with overlap
     ethr =  6.98E-08,  avg # of iterations =  1.1

     total cpu time spent up to now is    30826.5 secs

     total energy              =    -501.07645774 Ry
     Harris-Foulkes estimate   =    -501.07645837 Ry
     estimated scf accuracy    <       0.00016674 Ry

     iteration # 71     ecut=    60.00 Ry     beta= 0.30
     Davidson diagonalization with overlap
     ethr =  6.98E-08,  avg # of iterations =  1.0

     total cpu time spent up to now is    31045.8 secs

     total energy              =    -501.07645714 Ry
     Harris-Foulkes estimate   =    -501.07645860 Ry
     estimated scf accuracy    <       0.00016756 Ry

     iteration # 72     ecut=    60.00 Ry     beta= 0.30
     Davidson diagonalization with overlap
     c_bands:  1 eigenvalues not converged
     c_bands:  1 eigenvalues not converged
     ethr =  6.98E-08,  avg # of iterations =  3.6

     total cpu time spent up to now is    31274.6 secs

     total energy              =    -501.07646224 Ry
     Harris-Foulkes estimate   =    -501.07646148 Ry
     estimated scf accuracy    <       0.00019535 Ry

     iteration # 73     ecut=    60.00 Ry     beta= 0.30
     Davidson diagonalization with overlap
     c_bands:  1 eigenvalues not converged
     ethr =  6.98E-08,  avg # of iterations =  1.6

     total cpu time spent up to now is    31496.1 secs

     total energy              =    -501.07644246 Ry
     Harris-Foulkes estimate   =    -501.07646302 Ry
     estimated scf accuracy    <       0.00020345 Ry

     iteration # 74     ecut=    60.00 Ry     beta= 0.30
     Davidson diagonalization with overlap
     ethr =  6.98E-08,  avg # of iterations = 11.7

     total cpu time spent up to now is    31920.1 secs

     total energy              =    -501.07643196 Ry
     Harris-Foulkes estimate   =    -501.07663004 Ry
     estimated scf accuracy    <       0.00452905 Ry

     iteration # 75     ecut=    60.00 Ry     beta= 0.30
     Davidson diagonalization with overlap
     c_bands:  1 eigenvalues not converged
     c_bands:  1 eigenvalues not converged
     c_bands:  1 eigenvalues not converged
     c_bands:  1 eigenvalues not converged
     c_bands:  1 eigenvalues not converged
     c_bands:  1 eigenvalues not converged
     c_bands:  1 eigenvalues not converged
     ethr =  6.98E-08,  avg # of iterations = 14.8

     total cpu time spent up to now is    32268.2 secs

     total energy              =    -501.07637047 Ry
     Harris-Foulkes estimate   =    -501.07651858 Ry
     estimated scf accuracy    <       0.00243639 Ry

     iteration # 76     ecut=    60.00 Ry     beta= 0.30
     Davidson diagonalization with overlap
     ethr =  6.98E-08,  avg # of iterations = 14.9

     total cpu time spent up to now is    32675.1 secs

     total energy              =    -501.07645672 Ry
     Harris-Foulkes estimate   =    -501.07651365 Ry
     estimated scf accuracy    <       0.00181695 Ry

     iteration # 77     ecut=    60.00 Ry     beta= 0.30
     Davidson diagonalization with overlap
     c_bands:  1 eigenvalues not converged
     c_bands:  1 eigenvalues not converged
     c_bands:  1 eigenvalues not converged
     c_bands:  1 eigenvalues not converged
     c_bands:  1 eigenvalues not converged
     ethr =  6.98E-08,  avg # of iterations =  8.1

     total cpu time spent up to now is    32920.4 secs

     total energy              =    -501.07646072 Ry
     Harris-Foulkes estimate   =    -501.07646979 Ry
     estimated scf accuracy    <       0.00101095 Ry

     iteration # 78     ecut=    60.00 Ry     beta= 0.30
     Davidson diagonalization with overlap
     ethr =  6.98E-08,  avg # of iterations =  1.5

     total cpu time spent up to now is    33141.1 secs

     total energy              =    -501.07642235 Ry
     Harris-Foulkes estimate   =    -501.07646187 Ry
     estimated scf accuracy    <       0.00097510 Ry

     iteration # 79     ecut=    60.00 Ry     beta= 0.30
     Davidson diagonalization with overlap
     c_bands:  1 eigenvalues not converged
     c_bands:  1 eigenvalues not converged
     c_bands:  1 eigenvalues not converged
     c_bands:  1 eigenvalues not converged
     c_bands:  1 eigenvalues not converged
     c_bands:  1 eigenvalues not converged
     c_bands:  1 eigenvalues not converged
     c_bands:  1 eigenvalues not converged
     c_bands:  1 eigenvalues not converged
     c_bands:  1 eigenvalues not converged
     c_bands:  1 eigenvalues not converged
     c_bands:  1 eigenvalues not converged
     ethr =  6.98E-08,  avg # of iterations = 13.9

     total cpu time spent up to now is    33413.5 secs

     total energy              =    -501.07645389 Ry
     Harris-Foulkes estimate   =    -501.07645660 Ry
     estimated scf accuracy    <       0.00024266 Ry

     iteration # 80     ecut=    60.00 Ry     beta= 0.30
     Davidson diagonalization with overlap
     c_bands:  1 eigenvalues not converged
     c_bands:  1 eigenvalues not converged
     c_bands:  1 eigenvalues not converged
     c_bands:  1 eigenvalues not converged
     c_bands:  1 eigenvalues not converged
     c_bands:  1 eigenvalues not converged
     c_bands:  1 eigenvalues not converged
     c_bands:  1 eigenvalues not converged
     ethr =  6.98E-08,  avg # of iterations = 11.7

     total cpu time spent up to now is    33669.6 secs

     total energy              =    -501.07645348 Ry
     Harris-Foulkes estimate   =    -501.07646316 Ry
     estimated scf accuracy    <       0.00051637 Ry

     iteration # 81     ecut=    60.00 Ry     beta= 0.30
     Davidson diagonalization with overlap
     ethr =  6.98E-08,  avg # of iterations =  1.7

     total cpu time spent up to now is    33891.2 secs

     total energy              =    -501.07644431 Ry
     Harris-Foulkes estimate   =    -501.07645471 Ry
     estimated scf accuracy    <       0.00048949 Ry

     iteration # 82     ecut=    60.00 Ry     beta= 0.30
     Davidson diagonalization with overlap
     c_bands:  1 eigenvalues not converged
     ethr =  6.98E-08,  avg # of iterations =  5.0

     total cpu time spent up to now is    34124.3 secs

     total energy              =    -501.07643422 Ry
     Harris-Foulkes estimate   =    -501.07644697 Ry
     estimated scf accuracy    <       0.00030945 Ry

     iteration # 83     ecut=    60.00 Ry     beta= 0.30
     Davidson diagonalization with overlap
     c_bands:  1 eigenvalues not converged
     c_bands:  1 eigenvalues not converged
     c_bands:  1 eigenvalues not converged
     c_bands:  1 eigenvalues not converged
     c_bands:  1 eigenvalues not converged
     c_bands:  1 eigenvalues not converged
     c_bands:  1 eigenvalues not converged
     c_bands:  1 eigenvalues not converged
     c_bands:  1 eigenvalues not converged
     c_bands:  1 eigenvalues not converged
     c_bands:  1 eigenvalues not converged
     c_bands:  1 eigenvalues not converged
     c_bands:  1 eigenvalues not converged
     c_bands:  1 eigenvalues not converged
     c_bands:  1 eigenvalues not converged
     ethr =  6.98E-08,  avg # of iterations = 12.7

     total cpu time spent up to now is    34384.2 secs

     End of self-consistent calculation

          k = 0.0000 0.0000 0.0000 ( 71589 PWs)   bands (ev):

   -15.7939 -14.6110 -14.5874 -14.5827 -14.5820 -14.2171 -14.2161 -13.9362
   -13.9350 -13.9342 -13.6836 -13.6451 -13.6430 -13.2643 -13.1155 -13.1141
   -12.7032 -12.7001  -7.2928  -6.9948  -6.9947  -6.9941  -6.9935  -6.9343
    -6.7348  -6.5174  -6.5168  -6.2343  -6.0042  -5.9586  -5.8335  -5.8305
    -5.7932  -5.7920  -5.6631  -5.6102  -5.6062  -5.4661  -5.4649  -5.3069
    -5.3051  -5.0777  -4.6979  -4.6972  -4.6800  -4.6302  -4.4298  -4.3546
    -4.3537  -4.3026  -4.1001  -3.8203  -3.8159  -3.7426  -3.7415  -3.4317
    -3.4296  -3.4140  -3.2049  -3.1149  -3.1141  -2.8821  -2.8784  -2.8457
    -2.7116  -2.7095  -2.5343  -2.5250  -2.5231  -2.5179  -2.4206  -2.3758
    -2.3756  -1.9210  -1.9033  -1.9012  -0.8672  -0.7983

          k =-0.0000 0.1157 0.0000 ( 71639 PWs)   bands (ev):

   -15.7787 -14.7303 -14.6021 -14.6004 -14.4873 -14.1985 -14.1886 -14.0133
   -13.9392 -13.8731 -13.6586 -13.6445 -13.6362 -13.2561 -13.1245 -13.1188
   -12.7068 -12.7003  -7.2862  -7.0886  -7.0090  -6.9751  -6.9721  -6.8652
    -6.7631  -6.5201  -6.5086  -6.3410  -6.0883  -6.0704  -5.9106  -5.8364
    -5.7223  -5.7101  -5.6293  -5.5585  -5.4629  -5.4431  -5.4396  -5.2860
    -5.2677  -5.0322  -4.7061  -4.6833  -4.6561  -4.6538  -4.4824  -4.4023
    -4.3672  -4.3260  -4.1129  -3.8528  -3.8063  -3.7567  -3.7204  -3.5491
    -3.4260  -3.3496  -3.2123  -3.0659  -3.0217  -2.9451  -2.8565  -2.8281
    -2.7648  -2.7613  -2.6048  -2.4895  -2.4888  -2.4733  -2.4519  -2.3239
    -2.3061  -1.9366  -1.8874  -1.8834  -0.8532  -0.8368

          k =-0.0000 0.2314 0.0000 ( 71595 PWs)   bands (ev):

   -15.7337 -14.8949 -14.6398 -14.5760 -14.4617 -14.1327 -14.1233 -14.0994
   -13.9496 -13.8380 -13.6343 -13.6181 -13.6032 -13.2385 -13.1497 -13.1288
   -12.7168 -12.6993  -7.3040  -7.1651  -7.0420  -6.9218  -6.9098  -6.8673
    -6.7610  -6.6015  -6.5369  -6.4265  -6.2060  -6.2042  -6.0666  -5.9235
    -5.6027  -5.5990  -5.5090  -5.4619  -5.4430  -5.3662  -5.2536  -5.2265
    -5.1401  -4.9191  -4.7202  -4.6756  -4.6244  -4.5968  -4.5893  -4.5173
    -4.4185  -4.3827  -4.1416  -3.9441  -3.9012  -3.7773  -3.6648  -3.5255
    -3.4017  -3.3984  -3.1573  -3.1286  -3.0235  -2.8890  -2.8742  -2.8624
    -2.7408  -2.7372  -2.7154  -2.6174  -2.4032  -2.3714  -2.3443  -2.2457
    -2.2025  -1.9598  -1.8653  -1.8445  -0.9503  -0.8172

          k =-0.0000 0.3470 0.0000 ( 71562 PWs)   bands (ev):

   -15.6620 -15.0609 -14.6787 -14.5348 -14.4769 -14.1869 -14.0496 -14.0437
   -13.9613 -13.8307 -13.6078 -13.5967 -13.5544 -13.2237 -13.1839 -13.1355
   -12.7297 -12.6961  -7.3936  -7.1387  -7.0752  -6.9151  -6.8416  -6.8178
    -6.7477  -6.7451  -6.6117  -6.4197  -6.3371  -6.2592  -6.1991  -6.0259
    -5.5633  -5.5469  -5.3920  -5.3738  -5.3534  -5.2842  -5.2039  -5.0204
    -4.9871  -4.8697  -4.7975  -4.7112  -4.6482  -4.6298  -4.4956  -4.4667
    -4.4561  -4.3864  -4.1770  -4.0953  -4.0529  -3.7398  -3.5896  -3.4843
    -3.4086  -3.3485  -3.3277  -3.1130  -3.0471  -3.0464  -2.9933  -2.9376
    -2.7652  -2.7102  -2.6061  -2.5656  -2.2642  -2.2569  -2.2465  -2.1782
    -2.1377  -1.9510  -1.8597  -1.8115  -1.1154  -0.8269

          k =-0.0000 0.4627 0.0000 ( 71496 PWs)   bands (ev):

   -15.5731 -15.2097 -14.7053 -14.4956 -14.4855 -14.2656 -13.9915 -13.9706
   -13.9699 -13.8352 -13.5804 -13.5796 -13.5328 -13.2172 -13.2146 -13.1338
   -12.7404 -12.6922  -7.4710  -7.0959  -7.0929  -6.9344  -6.8485  -6.7733
    -6.7527  -6.7213  -6.6745  -6.4344  -6.4066  -6.3050  -6.2818  -6.1254
    -5.5595  -5.5241  -5.3659  -5.2567  -5.2537  -5.2208  -5.0901  -4.9096
    -4.8860  -4.8628  -4.8353  -4.7901  -4.7580  -4.6245  -4.5688  -4.5425
    -4.2566  -4.2500  -4.2060  -4.1921  -3.9609  -3.7212  -3.5403  -3.5269
    -3.5192  -3.3120  -3.2931  -3.2512  -3.1852  -3.1068  -3.0997  -3.0430
    -2.8810  -2.5922  -2.5378  -2.4245  -2.2008  -2.1618  -2.1350  -2.1109
    -2.1039  -1.9070  -1.8687  -1.8001  -1.2871  -0.8360

          k = 0.0000-0.5784 0.0000 ( 71532 PWs)   bands (ev):

   -15.5154 -15.2880 -14.7146 -14.5030 -14.4557 -14.3056 -13.9730 -13.9692
   -13.9418 -13.8380 -13.5736 -13.5687 -13.5297 -13.2275 -13.2158 -13.1310
   -12.7446 -12.6904  -7.4995  -7.1017  -7.0763  -6.9280  -6.8859  -6.7952
    -6.7040  -6.6998  -6.6741  -6.4759  -6.4016  -6.3507  -6.2879  -6.1733
    -5.5605  -5.5173  -5.3627  -5.2123  -5.1993  -5.1964  -4.9739  -4.9485
    -4.8904  -4.8896  -4.8191  -4.8070  -4.7024  -4.6356  -4.6351  -4.6001
    -4.3223  -4.2692  -4.2170  -3.9148  -3.8527  -3.6937  -3.6435  -3.5435
    -3.5192  -3.4891  -3.2625  -3.2594  -3.2372  -3.1368  -3.1180  -3.0707
    -2.9253  -2.5408  -2.5205  -2.3711  -2.1810  -2.1507  -2.1204  -2.0736
    -2.0334  -1.8818  -1.8752  -1.8023  -1.3722  -0.8463

          k = 0.1002 0.1735 0.0000 ( 71607 PWs)   bands (ev):

   -15.7486 -14.8451 -14.6469 -14.5846 -14.4411 -14.1822 -14.1229 -14.0744
   -13.9517 -13.8395 -13.6419 -13.6216 -13.6188 -13.2433 -13.1438 -13.1239
   -12.7144 -12.6990  -7.2889  -7.1519  -7.0484  -6.9433  -6.9258  -6.8262
    -6.7900  -6.5587  -6.5224  -6.4264  -6.1803  -6.1596  -6.0624  -5.8234
    -5.6573  -5.6498  -5.5933  -5.4542  -5.4040  -5.3860  -5.3035  -5.2642
    -5.1867  -4.9446  -4.7046  -4.7005  -4.6348  -4.6139  -4.5746  -4.4619
    -4.4110  -4.3690  -4.1265  -3.9183  -3.8402  -3.7837  -3.7043  -3.5410
    -3.4286  -3.3429  -3.2195  -3.0823  -2.9664  -2.9330  -2.8700  -2.8363
    -2.7981  -2.7368  -2.6638  -2.5480  -2.4549  -2.4322  -2.3625  -2.3081
    -2.1874  -1.9587  -1.8688  -1.8542  -0.9131  -0.8281

          k = 0.1002 0.2892 0.0000 ( 71540 PWs)   bands (ev):

   -15.6900 -14.9926 -14.7102 -14.5508 -14.4155 -14.1523 -14.1311 -14.0402
   -13.9732 -13.8143 -13.6279 -13.5993 -13.5684 -13.2282 -13.1772 -13.1280
   -12.7267 -12.6959  -7.3488  -7.1593  -7.0950  -6.8863  -6.8712  -6.8383
    -6.7719  -6.6656  -6.5798  -6.4499  -6.2883  -6.2388  -6.1923  -5.8957
    -5.6126  -5.6037  -5.4975  -5.4224  -5.2976  -5.2486  -5.2385  -5.1166
    -5.0517  -4.8407  -4.7688  -4.7036  -4.6732  -4.5681  -4.5592  -4.4760
    -4.4368  -4.4358  -4.1499  -4.0257  -4.0023  -3.7458  -3.6829  -3.4554
    -3.4179  -3.3653  -3.2753  -3.2031  -3.0458  -2.9352  -2.9256  -2.7871
    -2.7806  -2.6763  -2.6619  -2.6056  -2.4156  -2.3178  -2.2528  -2.2455
    -2.0827  -1.9729  -1.8520  -1.8189  -1.0530  -0.8235

          k = 0.1002 0.4049 0.0000 ( 71507 PWs)   bands (ev):

   -15.6080 -15.1435 -14.7581 -14.5045 -14.4178 -14.2318 -14.0544 -13.9924
   -13.9757 -13.8061 -13.6024 -13.5796 -13.5370 -13.2194 -13.2125 -13.1258
   -12.7391 -12.6912  -7.4313  -7.1527  -7.0873  -6.9432  -6.8141  -6.7963
    -6.7327  -6.7296  -6.6442  -6.4457  -6.4039  -6.2840  -6.2679  -6.0199
    -5.5999  -5.5113  -5.4717  -5.3706  -5.2322  -5.1515  -5.1209  -4.9657
    -4.9275  -4.8388  -4.8050  -4.8036  -4.6604  -4.6169  -4.5669  -4.4837
    -4.4041  -4.2442  -4.2071  -4.1525  -4.0253  -3.7101  -3.6382  -3.4850
    -3.4699  -3.3758  -3.3008  -3.2352  -3.1904  -3.0131  -2.9691  -2.9579
    -2.8290  -2.6573  -2.5471  -2.4636  -2.3575  -2.1980  -2.1635  -2.1546
    -2.0349  -1.9389  -1.8446  -1.7999  -1.2271  -0.8337

          k = 0.1002 0.5206 0.0000 ( 71533 PWs)   bands (ev):

   -15.5227 -15.2659 -14.7829 -14.4590 -14.4246 -14.2951 -14.0033 -13.9922
   -13.9474 -13.8056 -13.5811 -13.5698 -13.5291 -13.2352 -13.2170 -13.1202
   -12.7468 -12.6876  -7.4821  -7.1423  -7.0907  -6.9674  -6.8249  -6.7713
    -6.7509  -6.6824  -6.6517  -6.4575  -6.4384  -6.3421  -6.2816  -6.1277
    -5.5966  -5.4677  -5.4447  -5.3542  -5.1857  -5.0388  -5.0354  -4.9431
    -4.8941  -4.8554  -4.8142  -4.7575  -4.7290  -4.6275  -4.6146  -4.5501
    -4.3104  -4.3078  -4.1969  -4.0854  -3.7970  -3.7372  -3.6114  -3.6020
    -3.4964  -3.3817  -3.3374  -3.2717  -3.2673  -3.1436  -3.0163  -3.0056
    -2.9195  -2.5814  -2.4925  -2.3669  -2.3223  -2.1783  -2.1181  -2.0305
    -1.9856  -1.9113  -1.8405  -1.7996  -1.3720  -0.8383

          k = 0.1002-0.5206 0.0000 ( 71535 PWs)   bands (ev):

   -15.5226 -15.2660 -14.7828 -14.4590 -14.4246 -14.2951 -14.0033 -13.9916
   -13.9479 -13.8056 -13.5816 -13.5694 -13.5291 -13.2350 -13.2171 -13.1204
   -12.7466 -12.6877  -7.4821  -7.1415  -7.0915  -6.9674  -6.8250  -6.7713
    -6.7511  -6.6823  -6.6514  -6.4577  -6.4385  -6.3417  -6.2815  -6.1282
    -5.5969  -5.4678  -5.4455  -5.3538  -5.1859  -5.0383  -5.0339  -4.9435
    -4.8954  -4.8537  -4.8134  -4.7556  -4.7309  -4.6293  -4.6151  -4.5495
    -4.3104  -4.3071  -4.1972  -4.0870  -3.7939  -3.7364  -3.6131  -3.6019
    -3.4969  -3.3841  -3.3388  -3.2696  -3.2647  -3.1433  -3.0176  -3.0064
    -2.9195  -2.5820  -2.4916  -2.3673  -2.3222  -2.1788  -2.1172  -2.0307
    -1.9850  -1.9116  -1.8407  -1.8002  -1.3719  -0.8384

          k = 0.1002-0.4049 0.0000 ( 71506 PWs)   bands (ev):

   -15.6079 -15.1437 -14.7578 -14.5045 -14.4181 -14.2317 -14.0536 -13.9926
   -13.9765 -13.8060 -13.6029 -13.5792 -13.5370 -13.2195 -13.2119 -13.1262
   -12.7385 -12.6917  -7.4312  -7.1517  -7.0881  -6.9433  -6.8146  -6.7968
    -6.7323  -6.7291  -6.6443  -6.4460  -6.4042  -6.2830  -6.2676  -6.0208
    -5.6011  -5.5134  -5.4717  -5.3697  -5.2323  -5.1514  -5.1182  -4.9647
    -4.9263  -4.8406  -4.8049  -4.8024  -4.6612  -4.6174  -4.5672  -4.4826
    -4.4060  -4.2431  -4.2094  -4.1507  -4.0239  -3.7110  -3.6382  -3.4845
    -3.4710  -3.3772  -3.2975  -3.2341  -3.1902  -3.0144  -2.9692  -2.9590
    -2.8300  -2.6586  -2.5446  -2.4651  -2.3572  -2.1990  -2.1639  -2.1526
    -2.0341  -1.9395  -1.8451  -1.8010  -1.2271  -0.8336

          k = 0.1002-0.2892 0.0000 ( 71536 PWs)   bands (ev):

   -15.6899 -14.9929 -14.7098 -14.5508 -14.4158 -14.1521 -14.1302 -14.0410
   -13.9735 -13.8139 -13.6281 -13.5994 -13.5683 -13.2283 -13.1765 -13.1287
   -12.7256 -12.6968  -7.3487  -7.1587  -7.0954  -6.8868  -6.8712  -6.8379
    -6.7724  -6.6647  -6.5807  -6.4504  -6.2883  -6.2381  -6.1911  -5.8969
    -5.6150  -5.6065  -5.4953  -5.4232  -5.2970  -5.2462  -5.2385  -5.1159
    -5.0505  -4.8417  -4.7686  -4.7038  -4.6729  -4.5691  -4.5598  -4.4757
    -4.4362  -4.4336  -4.1538  -4.0239  -3.9999  -3.7481  -3.6833  -3.4556
    -3.4182  -3.3646  -3.2740  -3.2025  -3.0433  -2.9361  -2.9296  -2.7886
    -2.7797  -2.6776  -2.6579  -2.6084  -2.4157  -2.3181  -2.2508  -2.2455
    -2.0834  -1.9724  -1.8525  -1.8199  -1.0535  -0.8230

          k = 0.1002-0.1735 0.0000 ( 71609 PWs)   bands (ev):

   -15.7485 -14.8455 -14.6465 -14.5846 -14.4412 -14.1815 -14.1238 -14.0741
   -13.9524 -13.8390 -13.6413 -13.6224 -13.6187 -13.2434 -13.1429 -13.1248
   -12.7126 -12.7007  -7.2888  -7.1514  -7.0488  -6.9437  -6.9254  -6.8269
    -6.7893  -6.5575  -6.5242  -6.4272  -6.1791  -6.1589  -6.0617  -5.8246
    -5.6603  -5.6531  -5.5904  -5.4555  -5.4033  -5.3854  -5.3015  -5.2631
    -5.1868  -4.9447  -4.7039  -4.6998  -4.6361  -4.6132  -4.5749  -4.4623
    -4.4090  -4.3692  -4.1289  -3.9155  -3.8389  -3.7870  -3.7048  -3.5392
    -3.4294  -3.3438  -3.2188  -3.0808  -2.9667  -2.9352  -2.8674  -2.8400
    -2.7940  -2.7392  -2.6642  -2.5483  -2.4556  -2.4323  -2.3603  -2.3077
    -2.1890  -1.9576  -1.8695  -1.8548  -0.9143  -0.8289

          k = 0.1002-0.0578 0.0000 ( 71637 PWs)   bands (ev):

   -15.7787 -14.7304 -14.6021 -14.6007 -14.4867 -14.1979 -14.1894 -14.0128
   -13.9404 -13.8724 -13.6585 -13.6428 -13.6380 -13.2561 -13.1232 -13.1201
   -12.7041 -12.7030  -7.2862  -7.0882  -7.0093  -6.9755  -6.9717  -6.8657
    -6.7626  -6.5200  -6.5089  -6.3416  -6.0873  -6.0698  -5.9099  -5.8379
    -5.7239  -5.7095  -5.6293  -5.5610  -5.4632  -5.4405  -5.4391  -5.2841
    -5.2690  -5.0322  -4.7061  -4.6831  -4.6557  -4.6541  -4.4829  -4.4006
    -4.3676  -4.3268  -4.1133  -3.8495  -3.8098  -3.7564  -3.7210  -3.5468
    -3.4276  -3.3503  -3.2112  -3.0673  -3.0217  -2.9444  -2.8530  -2.8309
    -2.7653  -2.7615  -2.6054  -2.4896  -2.4884  -2.4738  -2.4503  -2.3248
    -2.3061  -1.9357  -1.8887  -1.8830  -0.8534  -0.8385

          k = 0.2004 0.3470 0.0000 ( 71488 PWs)   bands (ev):

   -15.6202 -15.1072 -14.8036 -14.5112 -14.3479 -14.2145 -14.1091 -14.0125
   -13.9746 -13.7817 -13.6176 -13.5794 -13.5387 -13.2207 -13.2150 -13.1185
   -12.7395 -12.6897  -7.4009  -7.1956  -7.0919  -6.9429  -6.8407  -6.7790
    -6.7292  -6.6896  -6.6250  -6.4888  -6.3926  -6.2859  -6.2590  -5.8834
    -5.6918  -5.6204  -5.4234  -5.3853  -5.2283  -5.1802  -5.0271  -5.0110
    -4.9905  -4.8315  -4.8109  -4.7216  -4.6533  -4.6263  -4.5145  -4.5065
    -4.4999  -4.2582  -4.1922  -4.0726  -4.0321  -3.7415  -3.7028  -3.4750
    -3.4256  -3.3863  -3.3534  -3.2641  -3.2124  -2.9753  -2.8554  -2.8453
    -2.7344  -2.7218  -2.5547  -2.5329  -2.4826  -2.2091  -2.1828  -2.1434
    -2.0296  -1.9416  -1.8311  -1.7992  -1.2047  -0.8333

          k = 0.2004 0.4627 0.0000 ( 71532 PWs)   bands (ev):

   -15.5329 -15.2263 -14.8652 -14.4638 -14.3152 -14.2768 -14.0517 -14.0422
   -13.9498 -13.7617 -13.5984 -13.5701 -13.5282 -13.2450 -13.2190 -13.1055
   -12.7499 -12.6834  -7.4442  -7.2193  -7.1040  -6.9840  -6.7982  -6.7928
    -6.7038  -6.6496  -6.6424  -6.5096  -6.4402  -6.3307  -6.2767  -6.0011
    -5.6758  -5.6235  -5.4184  -5.3357  -5.1772  -5.0874  -4.9626  -4.9381
    -4.8856  -4.8610  -4.8192  -4.7280  -4.6966  -4.5783  -4.5631  -4.5197
    -4.4048  -4.2831  -4.2504  -4.1121  -3.7721  -3.7591  -3.7243  -3.5854
    -3.4712  -3.4611  -3.3879  -3.3480  -3.1128  -3.0263  -2.9655  -2.8805
    -2.8742  -2.6699  -2.5809  -2.4402  -2.3716  -2.1887  -2.0667  -2.0278
    -2.0112  -1.8898  -1.8178  -1.7916  -1.3707  -0.8385

          k = 0.2004 0.5784 0.0000 ( 71524 PWs)   bands (ev):

   -15.4733 -15.2978 -14.8856 -14.4346 -14.3113 -14.3082 -14.0527 -14.0065
   -13.9595 -13.7558 -13.5851 -13.5712 -13.5279 -13.2557 -13.2194 -13.0994
   -12.7537 -12.6809  -7.4618  -7.2028  -7.1573  -6.9644  -6.8134  -6.7680
    -6.7110  -6.6620  -6.6349  -6.5117  -6.4185  -6.3279  -6.2840  -6.0944
    -5.6564  -5.6243  -5.4209  -5.3227  -5.1441  -5.0568  -4.9675  -4.8911
    -4.8897  -4.8500  -4.7566  -4.7470  -4.7052  -4.5962  -4.5635  -4.5415
    -4.4140  -4.3319  -4.1334  -4.0554  -3.9428  -3.7533  -3.6424  -3.5722
    -3.4836  -3.3962  -3.3837  -3.3429  -3.2484  -3.0382  -2.9879  -2.9413
    -2.9177  -2.6421  -2.5747  -2.4103  -2.3245  -2.1849  -2.0620  -1.9699
    -1.9424  -1.8611  -1.8401  -1.7819  -1.4605  -0.8395

          k = 0.2004-0.4627 0.0000 ( 71526 PWs)   bands (ev):

   -15.5328 -15.2266 -14.8649 -14.4638 -14.3154 -14.2767 -14.0509 -14.0423
   -13.9506 -13.7615 -13.5991 -13.5695 -13.5283 -13.2444 -13.2192 -13.1059
   -12.7493 -12.6839  -7.4439  -7.2184  -7.1053  -6.9839  -6.7983  -6.7931
    -6.7038  -6.6491  -6.6420  -6.5101  -6.4406  -6.3297  -6.2765  -6.0019
    -5.6773  -5.6242  -5.4192  -5.3346  -5.1780  -5.0861  -4.9598  -4.9379
    -4.8895  -4.8565  -4.8183  -4.7266  -4.6989  -4.5787  -4.5644  -4.5196
    -4.4056  -4.2818  -4.2508  -4.1130  -3.7678  -3.7590  -3.7244  -3.5893
    -3.4695  -3.4625  -3.3888  -3.3457  -3.1121  -3.0268  -2.9646  -2.8829
    -2.8749  -2.6707  -2.5805  -2.4397  -2.3718  -2.1892  -2.0654  -2.0284
    -2.0099  -1.8897  -1.8193  -1.7930  -1.3708  -0.8382

          k = 0.2004-0.3471 0.0000 ( 71484 PWs)   bands (ev):

   -15.6201 -15.1077 -14.8032 -14.5112 -14.3481 -14.2142 -14.1083 -14.0129
   -13.9754 -13.7813 -13.6180 -13.5791 -13.5387 -13.2210 -13.2141 -13.1192
   -12.7381 -12.6907  -7.4003  -7.1951  -7.0927  -6.9436  -6.8411  -6.7791
    -6.7288  -6.6883  -6.6257  -6.4896  -6.3927  -6.2848  -6.2586  -5.8844
    -5.6944  -5.6219  -5.4250  -5.3830  -5.2291  -5.1790  -5.0255  -5.0086
    -4.9891  -4.8329  -4.8099  -4.7210  -4.6543  -4.6274  -4.5142  -4.5045
    -4.5011  -4.2579  -4.1946  -4.0713  -4.0299  -3.7416  -3.7049  -3.4748
    -3.4291  -3.3856  -3.3501  -3.2614  -3.2122  -2.9785  -2.8559  -2.8450
    -2.7359  -2.7224  -2.5549  -2.5316  -2.4835  -2.2097  -2.1833  -2.1409
    -2.0289  -1.9419  -1.8325  -1.8008  -1.2054  -0.8326

          k = 0.2004-0.2314 0.0000 ( 71540 PWs)   bands (ev):

   -15.6899 -14.9930 -14.7099 -14.5508 -14.4152 -14.1519 -14.1307 -14.0410
   -13.9740 -13.8136 -13.6277 -13.5999 -13.5682 -13.2284 -13.1761 -13.1291
   -12.7244 -12.6978  -7.3480  -7.1588  -7.0960  -6.8868  -6.8725  -6.8379
    -6.7709  -6.6641  -6.5814  -6.4509  -6.2875  -6.2379  -6.1916  -5.8976
    -5.6149  -5.6063  -5.4968  -5.4220  -5.2986  -5.2485  -5.2363  -5.1134
    -5.0509  -4.8413  -4.7668  -4.7057  -4.6723  -4.5686  -4.5597  -4.4741
    -4.4370  -4.4346  -4.1539  -4.0228  -3.9997  -3.7495  -3.6834  -3.4563
    -3.4162  -3.3661  -3.2740  -3.2024  -3.0428  -2.9361  -2.9293  -2.7890
    -2.7810  -2.6765  -2.6595  -2.6069  -2.4162  -2.3181  -2.2503  -2.2458
    -2.0836  -1.9718  -1.8532  -1.8202  -1.0547  -0.8220

          k = 0.2004-0.1157 0.0000 ( 71593 PWs)   bands (ev):

   -15.7337 -14.8950 -14.6402 -14.5760 -14.4607 -14.1325 -14.1241 -14.0990
   -13.9508 -13.8370 -13.6327 -13.6200 -13.6030 -13.2385 -13.1484 -13.1301
   -12.7142 -12.7017  -7.3035  -7.1647  -7.0429  -6.9222  -6.9094  -6.8685
    -6.7594  -6.6005  -6.5379  -6.4279  -6.2049  -6.2030  -6.0664  -5.9254
    -5.6025  -5.6009  -5.5096  -5.4638  -5.4422  -5.3671  -5.2512  -5.2236
    -5.1408  -4.9187  -4.7186  -4.6747  -4.6241  -4.5989  -4.5904  -4.5158
    -4.4180  -4.3828  -4.1429  -3.9413  -3.9004  -3.7809  -3.6651  -3.5242
    -3.4012  -3.4001  -3.1564  -3.1276  -3.0249  -2.8876  -2.8758  -2.8634
    -2.7381  -2.7376  -2.7178  -2.6174  -2.4033  -2.3714  -2.3431  -2.2469
    -2.2023  -1.9588  -1.8666  -1.8448  -0.9523  -0.8184

          k = 0.3005 0.5206 0.0000 ( 71558 PWs)   bands (ev):

   -15.4523 -15.3054 -14.9302 -14.4248 -14.3151 -14.2465 -14.0745 -14.0266
   -13.9693 -13.7319 -13.5894 -13.5735 -13.5279 -13.2633 -13.2209 -13.0902
   -12.7566 -12.6778  -7.4408  -7.2437  -7.1853  -6.9552  -6.8166  -6.7777
    -6.6692  -6.6397  -6.6318  -6.5729  -6.4065  -6.2872  -6.2858  -6.0595
    -5.7755  -5.6328  -5.4080  -5.3017  -5.1320  -5.0601  -4.9742  -4.8983
    -4.8626  -4.8079  -4.7708  -4.7136  -4.6953  -4.6077  -4.5088  -4.4961
    -4.4858  -4.3398  -4.1316  -4.0378  -3.8877  -3.8824  -3.7088  -3.6172
    -3.4648  -3.4382  -3.3677  -3.3357  -3.0443  -2.9961  -2.9958  -2.9561
    -2.8570  -2.7799  -2.6965  -2.3691  -2.3136  -2.1871  -2.0452  -1.9533
    -1.8983  -1.8740  -1.8226  -1.7704  -1.5042  -0.8394

          k = 0.3005 0.6362 0.0000 ( 71566 PWs)   bands (ev):

   -15.4520 -15.3058 -14.9300 -14.4248 -14.3150 -14.2465 -14.0746 -14.0260
   -13.9699 -13.7318 -13.5903 -13.5727 -13.5279 -13.2630 -13.2211 -13.0904
   -12.7562 -12.6781  -7.4403  -7.2432  -7.1865  -6.9551  -6.8167  -6.7778
    -6.6694  -6.6397  -6.6307  -6.5738  -6.4066  -6.2872  -6.2852  -6.0598
    -5.7763  -5.6331  -5.4082  -5.3015  -5.1326  -5.0592  -4.9738  -4.8982
    -4.8626  -4.8057  -4.7712  -4.7123  -4.6972  -4.6074  -4.5100  -4.4965
    -4.4857  -4.3382  -4.1320  -4.0393  -3.8870  -3.8819  -3.7077  -3.6176
    -3.4658  -3.4373  -3.3676  -3.3366  -3.0430  -2.9962  -2.9956  -2.9566
    -2.8567  -2.7809  -2.6975  -2.3696  -2.3129  -2.1870  -2.0452  -1.9515
    -1.8986  -1.8750  -1.8231  -1.7713  -1.5045  -0.8390

          k = 0.3006-0.4049 0.0000 ( 71530 PWs)   bands (ev):

   -15.5327 -15.2268 -14.8649 -14.4638 -14.3150 -14.2765 -14.0514 -14.0426
   -13.9506 -13.7613 -13.5994 -13.5694 -13.5282 -13.2441 -13.2193 -13.1062
   -12.7486 -12.6844  -7.4429  -7.2195  -7.1057  -6.9838  -6.7982  -6.7931
    -6.7030  -6.6495  -6.6421  -6.5105  -6.4406  -6.3295  -6.2765  -6.0021
    -5.6777  -5.6243  -5.4191  -5.3349  -5.1787  -5.0854  -4.9598  -4.9377
    -4.8873  -4.8613  -4.8157  -4.7263  -4.6992  -4.5775  -4.5625  -4.5193
    -4.4072  -4.2814  -4.2504  -4.1136  -3.7680  -3.7592  -3.7247  -3.5910
    -3.4678  -3.4616  -3.3887  -3.3465  -3.1125  -3.0281  -2.9647  -2.8807
    -2.8739  -2.6718  -2.5820  -2.4411  -2.3704  -2.1885  -2.0646  -2.0282
    -2.0108  -1.8895  -1.8193  -1.7939  -1.3720  -0.8374

          k = 0.3006-0.2892 0.0000 ( 71500 PWs)   bands (ev):

   -15.6078 -15.1439 -14.7580 -14.5045 -14.4173 -14.2315 -14.0543 -13.9932
   -13.9765 -13.8054 -13.6029 -13.5795 -13.5368 -13.2198 -13.2112 -13.1269
   -12.7368 -12.6930  -7.4298  -7.1532  -7.0885  -6.9441  -6.8146  -6.7956
    -6.7311  -6.7293  -6.6450  -6.4467  -6.4036  -6.2831  -6.2675  -6.0217
    -5.6013  -5.5136  -5.4721  -5.3698  -5.2341  -5.1487  -5.1206  -4.9648
    -4.9238  -4.8365  -4.8065  -4.8045  -4.6622  -4.6154  -4.5651  -4.4820
    -4.4060  -4.2447  -4.2086  -4.1516  -4.0226  -3.7127  -3.6387  -3.4856
    -3.4701  -3.3767  -3.2993  -3.2322  -3.1901  -3.0152  -2.9691  -2.9583
    -2.8299  -2.6597  -2.5471  -2.4627  -2.3582  -2.1973  -2.1637  -2.1525
    -2.0353  -1.9385  -1.8462  -1.8018  -1.2292  -0.8318

          k = 0.3006-0.1735 0.0000 ( 71558 PWs)   bands (ev):

   -15.6619 -15.0611 -14.6792 -14.5348 -14.4758 -14.1866 -14.0504 -14.0438
   -13.9624 -13.8296 -13.6062 -13.5987 -13.5540 -13.2240 -13.1825 -13.1368
   -12.7270 -12.6985  -7.3922  -7.1387  -7.0767  -6.9164  -6.8421  -6.8175
    -6.7460  -6.7440  -6.6127  -6.4209  -6.3359  -6.2586  -6.1989  -6.0278
    -5.5648  -5.5470  -5.3913  -5.3750  -5.3549  -5.2860  -5.2007  -5.0173
    -4.9873  -4.8692  -4.7941  -4.7156  -4.6476  -4.6279  -4.4945  -4.4667
    -4.4547  -4.3882  -4.1788  -4.0940  -4.0504  -3.7431  -3.5898  -3.4854
    -3.4060  -3.3503  -3.3274  -3.1121  -3.0473  -3.0444  -2.9930  -2.9398
    -2.7660  -2.7119  -2.6077  -2.5635  -2.2642  -2.2555  -2.2464  -2.1797
    -2.1368  -1.9505  -1.8611  -1.8124  -1.1178  -0.8247

          k = 0.4007 0.6941 0.0000 ( 71532 PWs)   bands (ev):

   -15.4729 -15.2984 -14.8855 -14.4347 -14.3110 -14.3078 -14.0531 -14.0068
   -13.9598 -13.7553 -13.5866 -13.5700 -13.5278 -13.2551 -13.2198 -13.0999
   -12.7525 -12.6817  -7.4604  -7.2039  -7.1584  -6.9641  -6.8135  -6.7681
    -6.7100  -6.6621  -6.6349  -6.5125  -6.4187  -6.3273  -6.2839  -6.0950
    -5.6576  -5.6246  -5.4210  -5.3227  -5.1457  -5.0551  -4.9667  -4.8912
    -4.8885  -4.8510  -4.7561  -4.7450  -4.7072  -4.5949  -4.5615  -4.5400
    -4.4168  -4.3304  -4.1349  -4.0542  -3.9440  -3.7535  -3.6421  -3.5727
    -3.4830  -3.3965  -3.3832  -3.3431  -3.2493  -3.0389  -2.9865  -2.9419
    -2.9161  -2.6439  -2.5762  -2.4116  -2.3230  -2.1840  -2.0613  -1.9692
    -1.9421  -1.8616  -1.8409  -1.7834  -1.4623  -0.8383

          k = 0.4008-0.3471 0.0000 ( 71533 PWs)   bands (ev):

   -15.5223 -15.2664 -14.7830 -14.4590 -14.4239 -14.2947 -14.0041 -13.9925
   -13.9478 -13.8049 -13.5826 -13.5685 -13.5289 -13.2340 -13.2175 -13.1212
   -12.7446 -12.6893  -7.4803  -7.1438  -7.0926  -6.9670  -6.8244  -6.7702
    -6.7512  -6.6828  -6.6515  -6.4578  -6.4393  -6.3409  -6.2814  -6.1293
    -5.5973  -5.4677  -5.4464  -5.3541  -5.1879  -5.0358  -5.0348  -4.9432
    -4.8929  -4.8566  -4.8123  -4.7551  -4.7314  -4.6264  -4.6127  -4.5477
    -4.3125  -4.3059  -4.1990  -4.0864  -3.7954  -3.7350  -3.6159  -3.6024
    -3.4956  -3.3812  -3.3392  -3.2703  -3.2659  -3.1440  -3.0169  -3.0051
    -2.9207  -2.5839  -2.4932  -2.3655  -2.3234  -2.1770  -2.1161  -2.0301
    -1.9864  -1.9106  -1.8421  -1.8018  -1.3749  -0.8367

          k = 0.4008-0.2314 0.0000 ( 71498 PWs)   bands (ev):

   -15.5729 -15.2101 -14.7058 -14.4945 -14.4856 -14.2652 -13.9924 -13.9711
   -13.9706 -13.8341 -13.5819 -13.5784 -13.5325 -13.2176 -13.2132 -13.1351
   -12.7377 -12.6944  -7.4692  -7.0980  -7.0939  -6.9353  -6.8468  -6.7720
    -6.7531  -6.7211  -6.6751  -6.4339  -6.4077  -6.3043  -6.2814  -6.1272
    -5.5607  -5.5238  -5.3660  -5.2573  -5.2556  -5.2230  -5.0869  -4.9095
    -4.8850  -4.8585  -4.8318  -4.7958  -4.7587  -4.6222  -4.5674  -4.5398
    -4.2551  -4.2520  -4.2081  -4.1928  -3.9588  -3.7230  -3.5419  -3.5268
    -3.5192  -3.3106  -3.2954  -3.2509  -3.1819  -3.1057  -3.1001  -3.0450
    -2.8822  -2.5946  -2.5389  -2.4227  -2.1993  -2.1613  -2.1367  -2.1106
    -2.1026  -1.9068  -1.8704  -1.8017  -1.2903  -0.8335

          k =-0.5009-0.8676 0.0000 ( 71552 PWs)   bands (ev):

   -15.5150 -15.2886 -14.7151 -14.5019 -14.4558 -14.3051 -13.9742 -13.9702
   -13.9417 -13.8369 -13.5757 -13.5669 -13.5293 -13.2260 -13.2164 -13.1324
   -12.7418 -12.6926  -7.4976  -7.1043  -7.0778  -6.9283  -6.8839  -6.7943
    -6.7043  -6.7002  -6.6739  -6.4760  -6.4027  -6.3496  -6.2876  -6.1750
    -5.5614  -5.5168  -5.3630  -5.2130  -5.2010  -5.1986  -4.9720  -4.9459
    -4.8896  -4.8861  -4.8247  -4.8081  -4.6985  -4.6329  -4.6328  -4.5987
    -4.3207  -4.2710  -4.2192  -3.9192  -3.8490  -3.6906  -3.6468  -3.5431
    -3.5207  -3.4890  -3.2627  -3.2610  -3.2341  -3.1366  -3.1169  -3.0725
    -2.9265  -2.5445  -2.5204  -2.3695  -2.1793  -2.1499  -2.1221  -2.0722
    -2.0326  -1.8816  -1.8772  -1.8044  -1.3760  -0.8437

          k =-0.1002-0.0578 0.0000 ( 71639 PWs)   bands (ev):

   -15.7787 -14.7301 -14.6021 -14.6008 -14.4869 -14.1984 -14.1887 -14.0132
   -13.9396 -13.8728 -13.6586 -13.6443 -13.6365 -13.2560 -13.1242 -13.1191
   -12.7065 -12.7006  -7.2862  -7.0885  -7.0090  -6.9751  -6.9721  -6.8652
    -6.7631  -6.5201  -6.5086  -6.3410  -6.0882  -6.0704  -5.9105  -5.8365
    -5.7225  -5.7101  -5.6292  -5.5586  -5.4627  -5.4431  -5.4397  -5.2855
    -5.2680  -5.0322  -4.7065  -4.6828  -4.6561  -4.6540  -4.4826  -4.4022
    -4.3672  -4.3260  -4.1129  -3.8527  -3.8064  -3.7567  -3.7203  -3.5489
    -3.4264  -3.3495  -3.2122  -3.0662  -3.0215  -2.9451  -2.8562  -2.8283
    -2.7646  -2.7616  -2.6049  -2.4895  -2.4888  -2.4735  -2.4516  -2.3241
    -2.3059  -1.9365  -1.8874  -1.8835  -0.8532  -0.8370

          k =-0.2004-0.1157 0.0000 ( 71595 PWs)   bands (ev):

   -15.7337 -14.8947 -14.6403 -14.5760 -14.4612 -14.1326 -14.1235 -14.0994
   -13.9500 -13.8375 -13.6342 -13.6185 -13.6032 -13.2384 -13.1493 -13.1291
   -12.7164 -12.6996  -7.3039  -7.1652  -7.0421  -6.9218  -6.9098  -6.8672
    -6.7609  -6.6015  -6.5369  -6.4267  -6.2058  -6.2042  -6.0665  -5.9236
    -5.6028  -5.5992  -5.5089  -5.4620  -5.4429  -5.3662  -5.2532  -5.2265
    -5.1402  -4.9192  -4.7202  -4.6760  -4.6240  -4.5972  -4.5893  -4.5171
    -4.4183  -4.3827  -4.1416  -3.9440  -3.9011  -3.7775  -3.6649  -3.5255
    -3.4016  -3.3987  -3.1572  -3.1286  -3.0236  -2.8891  -2.8741  -2.8623
    -2.7407  -2.7373  -2.7155  -2.6174  -2.4032  -2.3715  -2.3440  -2.2457
    -2.2023  -1.9597  -1.8654  -1.8447  -0.9505  -0.8172

          k =-0.3006-0.1735 0.0000 ( 71562 PWs)   bands (ev):

   -15.6620 -15.0608 -14.6791 -14.5348 -14.4764 -14.1869 -14.0499 -14.0437
   -13.9616 -13.8301 -13.6078 -13.5971 -13.5543 -13.2237 -13.1835 -13.1358
   -12.7293 -12.6965  -7.3935  -7.1387  -7.0753  -6.9149  -6.8417  -6.8178
    -6.7477  -6.7452  -6.6118  -6.4199  -6.3370  -6.2591  -6.1990  -6.0259
[...]
    -2.7875  -2.6816  -2.5770  -2.5650  -2.3370  -2.2444  -2.2038  -2.1838
    -2.0818  -1.9067  -1.7930  -1.7789  -1.1828  -0.9193

          k =-0.4009-0.2315 0.0000 ( 71456 PWs)   bands (ev):

   -15.5234 -15.1745 -14.6710 -14.4908 -14.4201 -14.2157 -13.9462 -13.9356
   -13.8964 -13.7945 -13.5712 -13.5227 -13.5176 -13.2966 -13.2522 -13.2246
   -12.8167 -12.7772  -7.4221  -7.0375  -7.0157  -6.9058  -6.8589  -6.7365
    -6.6983  -6.6970  -6.6529  -6.4405  -6.3889  -6.3078  -6.2838  -6.1230
    -5.5126  -5.4723  -5.3522  -5.2601  -5.2336  -5.1908  -5.0989  -4.9763
    -4.9590  -4.8460  -4.7728  -4.7403  -4.7057  -4.6584  -4.5793  -4.5494
    -4.2879  -4.2527  -4.1817  -4.1664  -3.9554  -3.6762  -3.5282  -3.5219
    -3.4787  -3.2983  -3.2596  -3.2397  -3.2146  -3.1207  -3.0652  -3.0168
    -2.8774  -2.5675  -2.5153  -2.4259  -2.2396  -2.1953  -2.0979  -2.0973
    -2.0387  -1.8861  -1.7772  -1.7638  -1.3572  -0.9297

          k = 0.5011 0.2894 0.0000 ( 71476 PWs)   bands (ev):

   -15.4564 -15.2630 -14.6812 -14.4998 -14.3830 -14.2630 -13.9247 -13.9196
   -13.8778 -13.7995 -13.5668 -13.5101 -13.5096 -13.3086 -13.2526 -13.2251
   -12.8220 -12.7767  -7.4517  -7.0396  -7.0021  -6.9010  -6.8804  -6.7648
    -6.7236  -6.6337  -6.6059  -6.4877  -6.3971  -6.3265  -6.3142  -6.1781
    -5.5148  -5.4651  -5.3515  -5.2198  -5.1945  -5.1474  -5.0209  -4.9718
    -4.9577  -4.8726  -4.7715  -4.7580  -4.6672  -4.6294  -4.6067  -4.6026
    -4.4021  -4.2801  -4.1721  -3.8931  -3.8302  -3.6716  -3.6044  -3.5763
    -3.5069  -3.4594  -3.2986  -3.2233  -3.2080  -3.1571  -3.0800  -3.0496
    -2.9153  -2.5231  -2.4911  -2.3745  -2.2023  -2.1882  -2.0585  -2.0438
    -2.0275  -1.8683  -1.7754  -1.7508  -1.4480  -0.9327

          k =-0.2004-0.2315 0.0000 ( 71506 PWs)   bands (ev):

   -15.6481 -14.9419 -14.6855 -14.4925 -14.3847 -14.1213 -14.0863 -13.9971
   -13.9163 -13.7537 -13.6208 -13.5825 -13.5418 -13.2876 -13.2373 -13.2033
   -12.7994 -12.7749  -7.2890  -7.0990  -7.0508  -6.8519  -6.8352  -6.7927
    -6.7368  -6.6682  -6.5770  -6.4590  -6.2599  -6.2532  -6.1739  -5.8701
    -5.6124  -5.5579  -5.4414  -5.3830  -5.2845  -5.2495  -5.2272  -5.1241
    -5.0520  -4.9429  -4.7547  -4.7090  -4.6412  -4.6102  -4.5427  -4.4723
    -4.4403  -4.4171  -4.1618  -3.9991  -3.9828  -3.7148  -3.6649  -3.4483
    -3.3536  -3.3153  -3.2565  -3.1640  -3.0669  -2.9541  -2.8983  -2.7823
    -2.7523  -2.7080  -2.6394  -2.5823  -2.4253  -2.3711  -2.2228  -2.2016
    -2.0733  -1.9123  -1.8089  -1.7742  -1.1170  -0.9200

          k =-0.3007-0.2893 0.0000 ( 71471 PWs)   bands (ev):

   -15.5615 -15.1007 -14.7384 -14.4423 -14.3951 -14.1769 -14.0245 -13.9452
   -13.9200 -13.7523 -13.5768 -13.5499 -13.5189 -13.2960 -13.2538 -13.2114
   -12.8150 -12.7743  -7.3792  -7.1042  -7.0147  -6.9159  -6.7930  -6.7631
    -6.7036  -6.6830  -6.6445  -6.4552  -6.3807  -6.2912  -6.2635  -6.0066
    -5.5545  -5.5075  -5.4262  -5.3399  -5.2237  -5.1572  -5.0966  -5.0238
    -4.9041  -4.8693  -4.8115  -4.7458  -4.6732  -4.6229  -4.5623  -4.4923
    -4.4025  -4.2422  -4.2059  -4.1330  -4.0150  -3.6734  -3.6190  -3.4752
    -3.4448  -3.3278  -3.2786  -3.2355  -3.1715  -3.0262  -2.9762  -2.9243
    -2.8344  -2.6317  -2.5249  -2.4671  -2.3631  -2.2517  -2.1418  -2.0946
    -2.0095  -1.9007  -1.7885  -1.7531  -1.2884  -0.9442

          k =-0.4009-0.3472 0.0000 ( 71503 PWs)   bands (ev):

   -15.4669 -15.2345 -14.7651 -14.4070 -14.3873 -14.2481 -13.9677 -13.9394
   -13.8908 -13.7552 -13.5647 -13.5222 -13.5101 -13.3165 -13.2544 -13.2116
   -12.8249 -12.7729  -7.4326  -7.0906  -7.0325  -6.9220  -6.8147  -6.7453
    -6.7054  -6.6810  -6.5929  -6.4597  -6.4314  -6.3211  -6.3040  -6.1273
    -5.5493  -5.4440  -5.4283  -5.3269  -5.1752  -5.0710  -5.0143  -4.9843
    -4.8830  -4.8565  -4.8011  -4.7184  -4.6870  -4.6392  -4.6131  -4.5376
    -4.3714  -4.3094  -4.1647  -4.0756  -3.7751  -3.7179  -3.5916  -3.5733
    -3.4862  -3.4007  -3.3190  -3.2670  -3.2144  -3.1320  -3.0463  -2.9753
    -2.9054  -2.5584  -2.4701  -2.3822  -2.3214  -2.1894  -2.0692  -2.0359
    -1.9672  -1.8712  -1.7820  -1.7387  -1.4354  -0.9604

          k = 0.5011 0.1736 0.0000 ( 71497 PWs)   bands (ev):

   -15.4669 -15.2344 -14.7651 -14.4069 -14.3874 -14.2480 -13.9672 -13.9396
   -13.8911 -13.7552 -13.5648 -13.5225 -13.5098 -13.3161 -13.2549 -13.2115
   -12.8249 -12.7729  -7.4326  -7.0902  -7.0329  -6.9221  -6.8147  -6.7451
    -6.7057  -6.6806  -6.5929  -6.4602  -6.4311  -6.3210  -6.3038  -6.1274
    -5.5494  -5.4439  -5.4282  -5.3269  -5.1753  -5.0710  -5.0137  -4.9844
    -4.8836  -4.8560  -4.8013  -4.7184  -4.6875  -4.6390  -4.6130  -4.5374
    -4.3709  -4.3100  -4.1644  -4.0756  -3.7756  -3.7187  -3.5927  -3.5712
    -3.4867  -3.3996  -3.3191  -3.2674  -3.2138  -3.1324  -3.0467  -2.9755
    -2.9049  -2.5586  -2.4700  -2.3823  -2.3213  -2.1897  -2.0694  -2.0358
    -1.9673  -1.8709  -1.7822  -1.7387  -1.4351  -0.9602

          k = 0.4009 0.1158 0.0000 ( 71475 PWs)   bands (ev):

   -15.5616 -15.1007 -14.7384 -14.4423 -14.3952 -14.1767 -14.0235 -13.9459
   -13.9203 -13.7522 -13.5769 -13.5501 -13.5186 -13.2948 -13.2556 -13.2109
   -12.8150 -12.7743  -7.3791  -7.1038  -7.0146  -6.9166  -6.7931  -6.7630
    -6.7033  -6.6826  -6.6448  -6.4551  -6.3809  -6.2917  -6.2630  -6.0066
    -5.5548  -5.5073  -5.4260  -5.3399  -5.2241  -5.1572  -5.0964  -5.0233
    -4.9050  -4.8689  -4.8115  -4.7462  -4.6722  -4.6235  -4.5615  -4.4921
    -4.4034  -4.2414  -4.2072  -4.1324  -4.0156  -3.6736  -3.6177  -3.4753
    -3.4454  -3.3289  -3.2772  -3.2355  -3.1712  -3.0264  -2.9768  -2.9239
    -2.8339  -2.6321  -2.5246  -2.4674  -2.3630  -2.2528  -2.1419  -2.0943
    -2.0098  -1.9004  -1.7886  -1.7532  -1.2876  -0.9440

          k = 0.3006 0.0579 0.0000 ( 71506 PWs)   bands (ev):

   -15.6481 -14.9419 -14.6855 -14.4925 -14.3849 -14.1204 -14.0861 -13.9979
   -13.9164 -13.7537 -13.6209 -13.5825 -13.5416 -13.2866 -13.2391 -13.2026
   -12.7994 -12.7749  -7.2890  -7.0989  -7.0503  -6.8527  -6.8353  -6.7925
    -6.7367  -6.6675  -6.5773  -6.4588  -6.2602  -6.2536  -6.1737  -5.8699
    -5.6122  -5.5583  -5.4410  -5.3829  -5.2851  -5.2498  -5.2274  -5.1233
    -5.0524  -4.9426  -4.7544  -4.7086  -4.6413  -4.6107  -4.5429  -4.4719
    -4.4404  -4.4174  -4.1624  -3.9990  -3.9828  -3.7148  -3.6635  -3.4489
    -3.3536  -3.3154  -3.2561  -3.1644  -3.0672  -2.9555  -2.8972  -2.7819
    -2.7517  -2.7078  -2.6398  -2.5827  -2.4255  -2.3718  -2.2231  -2.2013
    -2.0735  -1.9124  -1.8088  -1.7742  -1.1160  -0.9202

          k = 0.2004 0.0000 0.0000 ( 71569 PWs)   bands (ev):

   -15.7090 -14.7895 -14.6106 -14.5284 -14.4007 -14.1749 -14.1031 -14.0008
   -13.8896 -13.7729 -13.6883 -13.5989 -13.5691 -13.3094 -13.2042 -13.1893
   -12.7842 -12.7737  -7.2115  -7.1091  -6.9993  -6.9077  -6.8862  -6.7928
    -6.7617  -6.5633  -6.5220  -6.4381  -6.1890  -6.1091  -6.0494  -5.7813
    -5.6816  -5.5941  -5.5349  -5.4155  -5.3934  -5.3555  -5.3014  -5.2723
    -5.1931  -5.0385  -4.7487  -4.6943  -4.6772  -4.6477  -4.5116  -4.4351
    -4.3885  -4.3588  -4.1685  -3.8891  -3.8199  -3.7573  -3.6897  -3.4996
    -3.3702  -3.2976  -3.1770  -3.0625  -2.9403  -2.9144  -2.8774  -2.8413
    -2.7890  -2.7478  -2.6447  -2.5724  -2.4626  -2.4444  -2.3347  -2.2847
    -2.1929  -1.8898  -1.8371  -1.8063  -0.9778  -0.8942

          k =-0.3007-0.4051 0.0000 ( 71486 PWs)   bands (ev):

   -15.4806 -15.1830 -14.8623 -14.3963 -14.2826 -14.2174 -14.0392 -13.9902
   -13.8959 -13.6972 -13.5622 -13.5486 -13.5107 -13.3258 -13.2563 -13.1943
   -12.8288 -12.7675  -7.3894  -7.1827  -7.0519  -6.9296  -6.7743  -6.7369
    -6.6917  -6.6569  -6.5898  -6.5097  -6.4269  -6.3127  -6.2977  -5.9795
    -5.6916  -5.5769  -5.3979  -5.2906  -5.1715  -5.1129  -4.9845  -4.9110
    -4.8566  -4.8236  -4.8008  -4.7420  -4.7082  -4.6204  -4.5468  -4.4983
    -4.3881  -4.3178  -4.2461  -4.1018  -3.7569  -3.7448  -3.6865  -3.5607
    -3.5016  -3.4518  -3.3503  -3.2825  -3.0963  -3.0247  -2.9765  -2.9073
    -2.8329  -2.6430  -2.6039  -2.4190  -2.3653  -2.1718  -2.0793  -2.0154
    -1.9633  -1.8511  -1.7914  -1.7241  -1.4146  -0.9906

          k =-0.4009-0.4629 0.0000 ( 71478 PWs)   bands (ev):

   -15.4103 -15.2658 -14.8842 -14.3586 -14.2858 -14.2524 -14.0264 -13.9611
   -13.9077 -13.6919 -13.5602 -13.5303 -13.5159 -13.3352 -13.2576 -13.1898
   -12.8339 -12.7656  -7.4082  -7.1578  -7.1240  -6.8910  -6.7900  -6.7144
    -6.6902  -6.6738  -6.5990  -6.5100  -6.3967  -6.3071  -6.2982  -6.0891
    -5.6689  -5.5779  -5.4043  -5.2807  -5.1318  -5.0982  -4.9563  -4.9125
    -4.8517  -4.8060  -4.7753  -4.7304  -4.6629  -4.5986  -4.5645  -4.5174
    -4.4186  -4.4062  -4.1131  -4.0354  -3.9479  -3.7347  -3.6126  -3.5658
    -3.4739  -3.3759  -3.3601  -3.2858  -3.2444  -3.0380  -3.0141  -2.9507
    -2.8724  -2.6163  -2.5958  -2.3907  -2.3191  -2.1497  -2.0603  -1.9711
    -1.9150  -1.8292  -1.8025  -1.7144  -1.4999  -1.0032

          k = 0.5011 0.0579 0.0000 ( 71477 PWs)   bands (ev):

   -15.4808 -15.1829 -14.8623 -14.3964 -14.2828 -14.2172 -14.0383 -13.9905
   -13.8964 -13.6972 -13.5623 -13.5488 -13.5103 -13.3251 -13.2572 -13.1942
   -12.8288 -12.7675  -7.3893  -7.1823  -7.0523  -6.9298  -6.7743  -6.7370
    -6.6910  -6.6569  -6.5898  -6.5099  -6.4274  -6.3125  -6.2975  -5.9795
    -5.6916  -5.5771  -5.3980  -5.2908  -5.1716  -5.1122  -4.9846  -4.9107
    -4.8567  -4.8239  -4.8005  -4.7435  -4.7072  -4.6201  -4.5465  -4.4983
    -4.3879  -4.3184  -4.2465  -4.1014  -3.7569  -3.7464  -3.6853  -3.5604
    -3.5014  -3.4520  -3.3510  -3.2823  -3.0956  -3.0246  -2.9757  -2.9083
    -2.8321  -2.6434  -2.6043  -2.4191  -2.3651  -2.1729  -2.0793  -2.0151
    -1.9644  -1.8498  -1.7922  -1.7243  -1.4134  -0.9902

          k = 0.4008 0.0000 0.0000 ( 71434 PWs)   bands (ev):

   -15.5749 -15.0572 -14.7943 -14.4499 -14.3110 -14.1526 -14.0945 -13.9667
   -13.9234 -13.7177 -13.5804 -13.5708 -13.5185 -13.2971 -13.2577 -13.2012
   -12.8156 -12.7717  -7.3439  -7.1574  -7.0204  -6.9141  -6.7983  -6.7441
    -6.6865  -6.6803  -6.6224  -6.4953  -6.3727  -6.2835  -6.2632  -5.8413
    -5.7180  -5.5726  -5.3917  -5.3309  -5.2365  -5.1765  -5.0519  -4.9958
    -4.9623  -4.8530  -4.7873  -4.7382  -4.6990  -4.6308  -4.5183  -4.5099
    -4.4557  -4.2459  -4.1979  -4.0704  -4.0205  -3.7212  -3.6563  -3.4630
    -3.4297  -3.3343  -3.2871  -3.2842  -3.1874  -2.9951  -2.8540  -2.8200
    -2.7282  -2.6994  -2.5854  -2.5088  -2.4711  -2.2633  -2.1427  -2.1081
    -1.9952  -1.9020  -1.7949  -1.7434  -1.2571  -0.9563

          k = 0.3006-0.0578 0.0000 ( 71504 PWs)   bands (ev):

   -15.6482 -14.9420 -14.6853 -14.4925 -14.3848 -14.1207 -14.0859 -13.9977
   -13.9163 -13.7540 -13.6209 -13.5823 -13.5416 -13.2863 -13.2394 -13.2027
   -12.7994 -12.7749  -7.2889  -7.0988  -7.0504  -6.8524  -6.8356  -6.7926
    -6.7364  -6.6674  -6.5772  -6.4589  -6.2605  -6.2535  -6.1736  -5.8697
    -5.6125  -5.5582  -5.4413  -5.3829  -5.2847  -5.2502  -5.2274  -5.1232
    -5.0522  -4.9427  -4.7544  -4.7077  -4.6415  -4.6110  -4.5432  -4.4723
    -4.4402  -4.4176  -4.1620  -3.9994  -3.9831  -3.7143  -3.6630  -3.4490
    -3.3533  -3.3153  -3.2565  -3.1644  -3.0672  -2.9550  -2.8976  -2.7830
    -2.7514  -2.7079  -2.6397  -2.5822  -2.4255  -2.3720  -2.2226  -2.2015
    -2.0739  -1.9128  -1.8088  -1.7740  -1.1157  -0.9203

          k =-0.4009-0.5787 0.0000 ( 71514 PWs)   bands (ev):

   -15.3869 -15.2695 -14.9374 -14.3462 -14.2750 -14.1904 -14.0605 -13.9850
   -13.9204 -13.6592 -13.5588 -13.5419 -13.5186 -13.3412 -13.2594 -13.1803
   -12.8374 -12.7623  -7.3815  -7.2082  -7.1536  -6.8729  -6.7969  -6.7128
    -6.6718  -6.6355  -6.6049  -6.5705  -6.3852  -6.3111  -6.2477  -6.0339
    -5.8117  -5.5872  -5.3985  -5.2613  -5.1246  -5.0860  -4.9520  -4.9105
    -4.8186  -4.7975  -4.7571  -4.6911  -4.6609  -4.6097  -4.5253  -4.4920
    -4.4751  -4.4136  -4.1165  -4.0245  -3.8894  -3.8622  -3.7283  -3.5481
    -3.4741  -3.4043  -3.3285  -3.2916  -3.0312  -3.0254  -2.9942  -2.9375
    -2.8465  -2.8104  -2.6682  -2.3478  -2.3117  -2.1324  -2.0690  -1.9223
    -1.8974  -1.8228  -1.8089  -1.7108  -1.5246  -1.0191

          k = 0.5010-0.0578 0.0000 ( 71484 PWs)   bands (ev):

   -15.4808 -15.1829 -14.8622 -14.3965 -14.2827 -14.2170 -14.0387 -13.9903
   -13.8965 -13.6973 -13.5621 -13.5487 -13.5103 -13.3250 -13.2573 -13.1944
   -12.8288 -12.7676  -7.3891  -7.1824  -7.0523  -6.9298  -6.7741  -6.7372
    -6.6908  -6.6568  -6.5895  -6.5102  -6.4275  -6.3125  -6.2976  -5.9793
    -5.6917  -5.5771  -5.3982  -5.2908  -5.1714  -5.1119  -4.9850  -4.9106
    -4.8571  -4.8237  -4.8007  -4.7424  -4.7074  -4.6199  -4.5470  -4.4980
    -4.3880  -4.3184  -4.2468  -4.1016  -3.7567  -3.7464  -3.6851  -3.5603
    -3.5015  -3.4519  -3.3507  -3.2826  -3.0958  -3.0250  -2.9766  -2.9074
    -2.8321  -2.6435  -2.6037  -2.4193  -2.3652  -2.1735  -2.0792  -2.0148
    -1.9648  -1.8498  -1.7924  -1.7244  -1.4126  -0.9902

          k = 0.4008-0.1157 0.0000 ( 71478 PWs)   bands (ev):

   -15.5617 -15.1007 -14.7382 -14.4424 -14.3951 -14.1767 -14.0237 -13.9456
   -13.9203 -13.7526 -13.5766 -13.5498 -13.5186 -13.2943 -13.2561 -13.2113
   -12.8150 -12.7743  -7.3789  -7.1039  -7.0147  -6.9165  -6.7925  -6.7634
    -6.7029  -6.6830  -6.6443  -6.4552  -6.3811  -6.2917  -6.2632  -6.0064
    -5.5548  -5.5074  -5.4263  -5.3401  -5.2238  -5.1572  -5.0965  -5.0234
    -4.9044  -4.8692  -4.8116  -4.7458  -4.6715  -4.6236  -4.5623  -4.4919
    -4.4034  -4.2422  -4.2067  -4.1323  -4.0163  -3.6730  -3.6170  -3.4750
    -3.4457  -3.3287  -3.2776  -3.2349  -3.1720  -3.0260  -2.9777  -2.9243
    -2.8337  -2.6319  -2.5250  -2.4671  -2.3626  -2.2539  -2.1412  -2.0944
    -2.0102  -1.9009  -1.7889  -1.7531  -1.2865  -0.9440

          k = 0.5010-0.1736 0.0000 ( 71503 PWs)   bands (ev):

   -15.4671 -15.2344 -14.7649 -14.4067 -14.3878 -14.2476 -13.9676 -13.9393
   -13.8912 -13.7556 -13.5642 -13.5223 -13.5097 -13.3157 -13.2556 -13.2120
   -12.8249 -12.7730  -7.4323  -7.0903  -7.0329  -6.9220  -6.8145  -6.7451
    -6.7058  -6.6803  -6.5926  -6.4600  -6.4319  -6.3212  -6.3040  -6.1270
    -5.5494  -5.4440  -5.4285  -5.3271  -5.1751  -5.0702  -5.0146  -4.9845
    -4.8828  -4.8567  -4.8011  -4.7180  -4.6877  -4.6384  -4.6132  -4.5374
    -4.3711  -4.3099  -4.1640  -4.0765  -3.7763  -3.7188  -3.5908  -3.5716
    -3.4864  -3.4002  -3.3191  -3.2679  -3.2142  -3.1320  -3.0473  -2.9754
    -2.9045  -2.5585  -2.4704  -2.3818  -2.3210  -2.1910  -2.0692  -2.0355
    -1.9682  -1.8712  -1.7829  -1.7390  -1.4328  -0.9601

     highest occupied level (ev):    -0.8582

!    total energy              =    -501.08966103 Ry
     Harris-Foulkes estimate   =    -501.08966125 Ry
     estimated scf accuracy    <       0.00000025 Ry

     The total energy is the sum of the following terms:

     one-electron contribution =   -3423.09622582 Ry
     hartree contribution      =    1748.75026059 Ry
     xc contribution           =    -114.28558386 Ry
     ewald contribution        =    1287.88336942 Ry
     Dispersion Correction     =      -0.34148135 Ry

     convergence has been achieved in  29 iterations

     Forces acting on atoms (cartesian axes, Ry/au):

     atom    1 type  1   force =     0.00062652   -0.00005699    0.00000909
     atom    2 type  2   force =    -0.00011281    0.00018886   -0.00022237
     atom    3 type  2   force =     0.00014616   -0.00018968    0.00016510
     atom    4 type  1   force =     0.00022971    0.00066721   -0.00011733
     atom    5 type  2   force =     0.00007333   -0.00003374    0.00019501
     atom    6 type  2   force =    -0.00013975   -0.00000264   -0.00028558
     atom    7 type  1   force =    -0.00004533   -0.00001888   -0.00000885
     atom    8 type  2   force =    -0.00007416   -0.00004965    0.00031123
     atom    9 type  2   force =    -0.00002988    0.00012127   -0.00026517
     atom   10 type  1   force =    -0.00061885   -0.00011087    0.00007939
     atom   11 type  2   force =     0.00023843    0.00011599    0.00006776
     atom   12 type  2   force =    -0.00011315    0.00023551    0.00003808
     atom   13 type  2   force =    -0.00008535   -0.00031548    0.00005626
     atom   14 type  2   force =     0.00026166    0.00016534   -0.00000395
     atom   15 type  1   force =    -0.00035839   -0.00047972    0.00015715
     atom   16 type  2   force =    -0.00005792    0.00010680    0.00029862
     atom   17 type  2   force =     0.00005860   -0.00002267   -0.00027245
     atom   18 type  1   force =     0.00004330    0.00000136   -0.00001202
     atom   19 type  2   force =    -0.00005995   -0.00019996   -0.00017332
     atom   20 type  2   force =     0.00014555    0.00014981    0.00015586
     atom   21 type  1   force =    -0.00020599    0.00061459   -0.00006699
     atom   22 type  2   force =    -0.00022751    0.00000555    0.00000692
     atom   23 type  2   force =    -0.00000350   -0.00027677   -0.00005369
     atom   24 type  1   force =     0.00031450   -0.00051713   -0.00015930
     atom   25 type  2   force =     0.00018739   -0.00005863   -0.00014726
     atom   26 type  2   force =    -0.00019261   -0.00003947    0.00024782

     Total force =     0.001999     Total SCF correction =     0.001157
     SCF correction compared to forces is large: reduce conv_thr to get better values


     Computing stress (Cartesian axis) and pressure

          total   stress  (Ry/bohr**3)                   (kbar)     P=       -0.05
   0.00000148  -0.00000006  -0.00000007            0.22       -0.01       -0.01
  -0.00000006   0.00000139  -0.00000011           -0.01        0.20       -0.02
  -0.00000007  -0.00000011  -0.00000388           -0.01       -0.02       -0.57


     Writing output data file ./out/3x3_MoS2_mo.save/

     init_run     :   1750.14s CPU   1770.63s WALL (       2 calls)
     electrons    : 127233.35s CPU 129611.37s WALL (      19 calls)
     update_pot   :     88.71s CPU     89.00s WALL (      17 calls)
     forces       :   2282.74s CPU   2290.64s WALL (      19 calls)
     stress       :   2835.41s CPU   2849.38s WALL (      19 calls)

     Called by init_run:
     wfcinit      :   1740.03s CPU   1760.36s WALL (       2 calls)
     potinit      :      4.41s CPU      4.46s WALL (       2 calls)
     hinit0       :      2.38s CPU      2.40s WALL (       2 calls)

     Called by electrons:
     c_bands      : 123247.71s CPU 125269.33s WALL (     403 calls)
     sum_band     :   3888.32s CPU   4236.72s WALL (     403 calls)
     v_of_rho     :     33.73s CPU     35.01s WALL (     417 calls)
     mix_rho      :     35.65s CPU     38.50s WALL (     403 calls)

     Called by c_bands:
     init_us_2    :    387.80s CPU    394.92s WALL (   43992 calls)
     cegterg      : 119645.18s CPU 121640.45s WALL (   20956 calls)

     Called by sum_band:

     Called by *egterg:
     h_psi        :  70824.80s CPU  72714.04s WALL (  179901 calls)
     g_psi        :     53.88s CPU     54.33s WALL (  158841 calls)
     cdiaghg      :   4771.89s CPU   4777.78s WALL (  178653 calls)

     Called by h_psi:
     h_psi:calbec :  37399.61s CPU  37523.05s WALL (  179901 calls)
     vloc_psi     :  16858.97s CPU  18569.10s WALL (  179901 calls)
     add_vuspsi   :  16434.11s CPU  16488.43s WALL (  179901 calls)

     General routines
     calbec       :  40287.88s CPU  40419.58s WALL (  184841 calls)
     fft          :     60.14s CPU     65.18s WALL (    2145 calls)
     ffts         :      4.11s CPU      4.76s WALL (     820 calls)
     fftw         :  19363.18s CPU  21306.54s WALL (10080516 calls)
     interpolate  :     16.47s CPU     17.86s WALL (     417 calls)

     Parallel routines
     fft_scatt_xy :   1482.31s CPU   1609.38s WALL (10083481 calls)
     fft_scatt_yz :   7006.56s CPU   7884.86s WALL (10083481 calls)

     PWSCF        :   1d13h16m CPU   1d13h57m WALL


   This run was terminated on:   1:22:20  27May2022            

=------------------------------------------------------------------------------=
   JOB DONE.
=------------------------------------------------------------------------------=
