
     Program BANDS v.6.5Max starts on 25May2022 at 23:27:12 

     This program is part of the open-source Quantum ESPRESSO suite
     for quantum simulation of materials; please cite
         "P. Giannozzi et al., J. Phys.:Condens. Matter 21 395502 (2009);
         "P. Giannozzi et al., J. Phys.:Condens. Matter 29 465901 (2017);
          URL http://www.quantum-espresso.org", 
     in publications or presentations arising from this work. More details at
     http://www.quantum-espresso.org/quote

     Parallel version (MPI), running on    16 processors

     MPI processes distributed on     1 nodes
     R & G space division:  proc/nbgrp/npool/nimage =      16

     Reading xml data from directory:

     ./out/1x1_MoS2.save/

     IMPORTANT: XC functional enforced from input :
     Exchange-correlation= PW
                           (   1   4   0   0   0   0   0)
     Any further DFT definition will be discarded
     Please, verify this is what you really want

               file Mo.pw-mt_fhi.UPF: wavefunction(s)  4f renormalized
               file S.pw-mt_fhi.UPF: wavefunction(s)  4f renormalized

     Parallelization info
     --------------------
     sticks:   dense  smooth     PW     G-vecs:    dense   smooth      PW
     Min          88      34     10                15714     3948     638
     Max          89      35     11                15731     3981     663
     Sum        1417     559    163               251567    63583   10347

     Reading collected, re-writing distributed wavefunctions
     high-symmetry point:  0.0000 0.0000 0.0000   x coordinate   0.0000
     high-symmetry point:  0.5010-0.2893 0.0000   x coordinate   0.5786
     high-symmetry point:  0.3341-0.5784 0.0000   x coordinate   0.9123
     high-symmetry point:  0.0000 0.0000 0.0000   x coordinate   1.5803

     Plottable bands (eV) written to file 1x1_MoS2.bands.dat.gnu
     Bands written to file 1x1_MoS2.bands.dat

 **************************************************************************

                    xk=(   0.00000,   0.00000,   0.00000  )

     point group C_1 (1)    
     there are  1 classes
     the character table:

       E    
A      1.00

     the symmetry operations in each class and the name of the first element:

     E        1
                                                                 

     Band symmetry, C_1 (1)     point group:

     e(  1 -  1) =    -15.57595  eV     1   --> A              
     e(  2 -  2) =    -14.34826  eV     1   --> A              
     e(  3 -  3) =     -7.01803  eV     1   --> A              
     e(  4 -  4) =     -3.74146  eV     1   --> A              
     e(  5 -  5) =     -3.73771  eV     1   --> A              
     e(  6 -  6) =     -3.12817  eV     1   --> A              
     e(  7 -  7) =     -2.55521  eV     1   --> A              
     e(  8 -  8) =     -2.55166  eV     1   --> A              
     e(  9 -  9) =     -1.24925  eV     1   --> A              
     e( 10 - 10) =      1.99610  eV     1   --> A              
     e( 11 - 11) =      1.99700  eV     1   --> A              
     e( 12 - 12) =      2.30808  eV     1   --> A              
     e( 13 - 13) =      2.31213  eV     1   --> A              
     e( 14 - 14) =      4.46344  eV     1   --> A              
     e( 15 - 15) =      4.68293  eV     1   --> A              
     e( 16 - 16) =      5.38329  eV     1   --> A              
     e( 17 - 17) =      5.77132  eV     1   --> A              
     e( 18 - 18) =      6.95986  eV     1   --> A              
     e( 19 - 19) =      8.25247  eV     1   --> A              
     e( 20 - 20) =      8.33436  eV     1   --> A              
     e( 21 - 21) =      9.87096  eV     1   --> A              
     e( 22 - 22) =      9.87661  eV     1   --> A              
     e( 23 - 23) =     10.47291  eV     1   --> A              
     e( 24 - 24) =     11.75145  eV     1   --> A              
     e( 25 - 25) =     12.14874  eV     1   --> A              
     e( 26 - 26) =     12.15621  eV     1   --> A              
     e( 27 - 27) =     12.92093  eV     1   --> A              
     e( 28 - 28) =     14.95428  eV     1   --> A              
     e( 29 - 29) =     15.69064  eV     1   --> A              
     e( 30 - 30) =     15.73478  eV     1   --> A              
     e( 31 - 31) =     15.73733  eV     1   --> A              
     e( 32 - 32) =     15.96410  eV     1   --> A              
     e( 33 - 33) =     16.38722  eV     1   --> A              
     e( 34 - 34) =     16.39111  eV     1   --> A              
     e( 35 - 35) =     18.99646  eV     1   --> A              
     e( 36 - 36) =     19.23642  eV     1   --> A              
     e( 37 - 37) =     20.69675  eV     1   --> A              
     e( 38 - 38) =     21.20092  eV     1   --> A              
     e( 39 - 39) =     22.85766  eV     1   --> A              
     e( 40 - 40) =     22.86428  eV     1   --> A              
     e( 41 - 41) =     24.42299  eV     1   --> A              
     e( 42 - 42) =     24.43083  eV     1   --> A              
     e( 43 - 43) =     24.62374  eV     1   --> A              
     e( 44 - 44) =     25.08826  eV     1   --> A              
     e( 45 - 45) =     25.16984  eV     1   --> A              
     e( 46 - 46) =     25.22126  eV     1   --> A              
     e( 47 - 47) =     25.22286  eV     1   --> A              
     e( 48 - 48) =     25.22772  eV     1   --> A              
     e( 49 - 49) =     25.22996  eV     1   --> A              
     e( 50 - 50) =     25.76930  eV     1   --> A              
     e( 51 - 51) =     25.94113  eV     1   --> A              
     e( 52 - 52) =     25.94720  eV     1   --> A              
     e( 53 - 53) =     25.95923  eV     1   --> A              
     e( 54 - 54) =     26.43078  eV     1   --> A              
     e( 55 - 55) =     26.47770  eV     1   --> A              
     e( 56 - 56) =     26.48510  eV     1   --> A              
     e( 57 - 57) =     26.92779  eV     1   --> A              
     e( 58 - 58) =     26.96326  eV     1   --> A              
     e( 59 - 59) =     27.07937  eV     1   --> A              
     e( 60 - 60) =     27.08691  eV     1   --> A              
     e( 61 - 61) =     27.19917  eV     1   --> A              
     e( 62 - 62) =     27.22735  eV     1   --> A              
     e( 63 - 63) =     27.23431  eV     1   --> A              
     e( 64 - 64) =     27.57931  eV     1   --> A              
     e( 65 - 65) =     27.58600  eV     1   --> A              
     e( 66 - 66) =     28.14092  eV     1   --> A              
     e( 67 - 67) =     28.80759  eV     1   --> A              
     e( 68 - 68) =     28.93227  eV     1   --> A              
     e( 69 - 69) =     28.93986  eV     1   --> A              
     e( 70 - 70) =     29.43534  eV     1   --> A              
     e( 71 - 71) =     29.77843  eV     1   --> A              
     e( 72 - 72) =     29.78488  eV     1   --> A              
     e( 73 - 73) =     29.94147  eV     1   --> A              
     e( 74 - 74) =     29.96423  eV     1   --> A              
     e( 75 - 75) =     29.97240  eV     1   --> A              
     e( 76 - 76) =     30.86980  eV     1   --> A              
     e( 77 - 77) =     30.87592  eV     1   --> A              
     e( 78 - 78) =     30.99768  eV     1   --> A              
     e( 79 - 79) =     31.78236  eV     1   --> A              
     e( 80 - 80) =     32.08841  eV     1   --> A              
     e( 81 - 81) =     32.09578  eV     1   --> A              
     e( 82 - 82) =     32.39064  eV     1   --> A              
     e( 83 - 83) =     33.44315  eV     1   --> A              
     e( 84 - 84) =     33.44792  eV     1   --> A              
     e( 85 - 85) =     33.67438  eV     1   --> A              
     e( 86 - 86) =     33.68302  eV     1   --> A              
     e( 87 - 87) =     33.82940  eV     1   --> A              
     e( 88 - 88) =     33.90773  eV     1   --> A              
     e( 89 - 89) =     34.38852  eV     1   --> A              
     e( 90 - 90) =     35.05009  eV     1   --> A              
     e( 91 - 91) =     35.05442  eV     1   --> A              
     e( 92 - 92) =     35.34731  eV     1   --> A              
     e( 93 - 93) =     35.51341  eV     1   --> A              
     e( 94 - 94) =     35.51916  eV     1   --> A              
     e( 95 - 95) =     36.36780  eV     1   --> A              
     e( 96 - 96) =     36.68127  eV     1   --> A              
     e( 97 - 97) =     36.94715  eV     1   --> A              
     e( 98 - 98) =     36.94740  eV     1   --> A              
     e( 99 - 99) =     37.58552  eV     1   --> A              
     e(100 -100) =     37.59182  eV     1   --> A              

 **************************************************************************

 **************************************************************************

                    xk=(   0.01392,  -0.00804,   0.00000  )

     Band symmetry, C_1 (1)     point group:

     e(  1 -  1) =    -15.57298  eV     1   --> A              
     e(  2 -  2) =    -14.34649  eV     1   --> A              
     e(  3 -  3) =     -7.01472  eV     1   --> A              
     e(  4 -  4) =     -3.74505  eV     1   --> A              
     e(  5 -  5) =     -3.73830  eV     1   --> A              
     e(  6 -  6) =     -3.14577  eV     1   --> A              
     e(  7 -  7) =     -2.56056  eV     1   --> A              
     e(  8 -  8) =     -2.53844  eV     1   --> A              
     e(  9 -  9) =     -1.24994  eV     1   --> A              
     e( 10 - 10) =      1.99136  eV     1   --> A              
     e( 11 - 11) =      2.00248  eV     1   --> A              
     e( 12 - 12) =      2.30011  eV     1   --> A              
     e( 13 - 13) =      2.30383  eV     1   --> A              
     e( 14 - 14) =      4.46951  eV     1   --> A              
     e( 15 - 15) =      4.68700  eV     1   --> A              
     e( 16 - 16) =      5.39615  eV     1   --> A              
     e( 17 - 17) =      5.77834  eV     1   --> A              
     e( 18 - 18) =      6.96367  eV     1   --> A              
     e( 19 - 19) =      8.26759  eV     1   --> A              
     e( 20 - 20) =      8.33802  eV     1   --> A              
     e( 21 - 21) =      9.86544  eV     1   --> A              
     e( 22 - 22) =      9.88153  eV     1   --> A              
     e( 23 - 23) =     10.47600  eV     1   --> A              
     e( 24 - 24) =     11.76074  eV     1   --> A              
     e( 25 - 25) =     12.12558  eV     1   --> A              
     e( 26 - 26) =     12.14800  eV     1   --> A              
     e( 27 - 27) =     12.92046  eV     1   --> A              
     e( 28 - 28) =     14.95920  eV     1   --> A              
     e( 29 - 29) =     15.69167  eV     1   --> A              
     e( 30 - 30) =     15.74338  eV     1   --> A              
     e( 31 - 31) =     15.74514  eV     1   --> A              
     e( 32 - 32) =     15.96809  eV     1   --> A              
     e( 33 - 33) =     16.37529  eV     1   --> A              
     e( 34 - 34) =     16.38677  eV     1   --> A              
     e( 35 - 35) =     19.00361  eV     1   --> A              
     e( 36 - 36) =     19.27483  eV     1   --> A              
     e( 37 - 37) =     20.70119  eV     1   --> A              
     e( 38 - 38) =     21.19743  eV     1   --> A              
     e( 39 - 39) =     22.84538  eV     1   --> A              
     e( 40 - 40) =     22.86669  eV     1   --> A              
     e( 41 - 41) =     24.08771  eV     1   --> A              
     e( 42 - 42) =     24.35257  eV     1   --> A              
     e( 43 - 43) =     24.80825  eV     1   --> A              
     e( 44 - 44) =     24.84481  eV     1   --> A              
     e( 45 - 45) =     25.14714  eV     1   --> A              
     e( 46 - 46) =     25.14807  eV     1   --> A              
     e( 47 - 47) =     25.15358  eV     1   --> A              
     e( 48 - 48) =     25.29373  eV     1   --> A              
     e( 49 - 49) =     25.35454  eV     1   --> A              
     e( 50 - 50) =     25.78538  eV     1   --> A              
     e( 51 - 51) =     25.94985  eV     1   --> A              
     e( 52 - 52) =     25.96826  eV     1   --> A              
     e( 53 - 53) =     25.98874  eV     1   --> A              
     e( 54 - 54) =     26.38313  eV     1   --> A              
     e( 55 - 55) =     26.47630  eV     1   --> A              
     e( 56 - 56) =     26.59977  eV     1   --> A              
     e( 57 - 57) =     26.64320  eV     1   --> A              
     e( 58 - 58) =     26.97527  eV     1   --> A              
     e( 59 - 59) =     27.02284  eV     1   --> A              
     e( 60 - 60) =     27.04856  eV     1   --> A              
     e( 61 - 61) =     27.29990  eV     1   --> A              
     e( 62 - 62) =     27.32489  eV     1   --> A              
     e( 63 - 63) =     27.38718  eV     1   --> A              
     e( 64 - 64) =     27.64317  eV     1   --> A              
     e( 65 - 65) =     27.69336  eV     1   --> A              
     e( 66 - 66) =     28.34341  eV     1   --> A              
     e( 67 - 67) =     28.70894  eV     1   --> A              
     e( 68 - 68) =     28.83233  eV     1   --> A              
     e( 69 - 69) =     28.85174  eV     1   --> A              
     e( 70 - 70) =     29.47719  eV     1   --> A              
     e( 71 - 71) =     29.54708  eV     1   --> A              
     e( 72 - 72) =     29.86210  eV     1   --> A              
     e( 73 - 73) =     29.90526  eV     1   --> A              
     e( 74 - 74) =     29.94328  eV     1   --> A              
     e( 75 - 75) =     30.28719  eV     1   --> A              
     e( 76 - 76) =     30.84181  eV     1   --> A              
     e( 77 - 77) =     30.93684  eV     1   --> A              
     e( 78 - 78) =     31.03951  eV     1   --> A              
     e( 79 - 79) =     31.90495  eV     1   --> A              
     e( 80 - 80) =     32.00439  eV     1   --> A              
     e( 81 - 81) =     32.02505  eV     1   --> A              
     e( 82 - 82) =     32.35217  eV     1   --> A              
     e( 83 - 83) =     33.40126  eV     1   --> A              
     e( 84 - 84) =     33.49801  eV     1   --> A              
     e( 85 - 85) =     33.54956  eV     1   --> A              
     e( 86 - 86) =     33.63940  eV     1   --> A              
     e( 87 - 87) =     33.91078  eV     1   --> A              
     e( 88 - 88) =     34.04779  eV     1   --> A              
     e( 89 - 89) =     34.39070  eV     1   --> A              
     e( 90 - 90) =     35.06965  eV     1   --> A              
     e( 91 - 91) =     35.08671  eV     1   --> A              
     e( 92 - 92) =     35.34459  eV     1   --> A              
     e( 93 - 93) =     35.45052  eV     1   --> A              
     e( 94 - 94) =     35.54393  eV     1   --> A              
     e( 95 - 95) =     36.38337  eV     1   --> A              
     e( 96 - 96) =     36.50896  eV     1   --> A              
     e( 97 - 97) =     36.93924  eV     1   --> A              
     e( 98 - 98) =     37.18208  eV     1   --> A              
     e( 99 - 99) =     37.56438  eV     1   --> A              
     e(100 -100) =     37.57286  eV     1   --> A              

 **************************************************************************

 **************************************************************************

                    xk=(   0.02784,  -0.01607,   0.00000  )

     Band symmetry, C_1 (1)     point group:

     e(  1 -  1) =    -15.56403  eV     1   --> A              
     e(  2 -  2) =    -14.34113  eV     1   --> A              
     e(  3 -  3) =     -7.00482  eV     1   --> A              
     e(  4 -  4) =     -3.76688  eV     1   --> A              
     e(  5 -  5) =     -3.72884  eV     1   --> A              
     e(  6 -  6) =     -3.19405  eV     1   --> A              
     e(  7 -  7) =     -2.57646  eV     1   --> A              
     e(  8 -  8) =     -2.50342  eV     1   --> A              
     e(  9 -  9) =     -1.25207  eV     1   --> A              
     e( 10 - 10) =      1.97497  eV     1   --> A              
     e( 11 - 11) =      2.02144  eV     1   --> A              
     e( 12 - 12) =      2.26484  eV     1   --> A              
     e( 13 - 13) =      2.29117  eV     1   --> A              
     e( 14 - 14) =      4.48732  eV     1   --> A              
     e( 15 - 15) =      4.69921  eV     1   --> A              
     e( 16 - 16) =      5.43376  eV     1   --> A              
     e( 17 - 17) =      5.80004  eV     1   --> A              
     e( 18 - 18) =      6.97507  eV     1   --> A              
     e( 19 - 19) =      8.31240  eV     1   --> A              
     e( 20 - 20) =      8.34890  eV     1   --> A              
     e( 21 - 21) =      9.83302  eV     1   --> A              
     e( 22 - 22) =      9.91314  eV     1   --> A              
     e( 23 - 23) =     10.48506  eV     1   --> A              
     e( 24 - 24) =     11.78769  eV     1   --> A              
     e( 25 - 25) =     12.03808  eV     1   --> A              
     e( 26 - 26) =     12.14596  eV     1   --> A              
     e( 27 - 27) =     12.91858  eV     1   --> A              
     e( 28 - 28) =     14.96943  eV     1   --> A              
     e( 29 - 29) =     15.63039  eV     1   --> A              
     e( 30 - 30) =     15.76899  eV     1   --> A              
     e( 31 - 31) =     15.83724  eV     1   --> A              
     e( 32 - 32) =     15.97861  eV     1   --> A              
     e( 33 - 33) =     16.33980  eV     1   --> A              
     e( 34 - 34) =     16.37559  eV     1   --> A              
     e( 35 - 35) =     19.02515  eV     1   --> A              
     e( 36 - 36) =     19.38601  eV     1   --> A              
     e( 37 - 37) =     20.71448  eV     1   --> A              
     e( 38 - 38) =     21.18650  eV     1   --> A              
     e( 39 - 39) =     22.78973  eV     1   --> A              
     e( 40 - 40) =     22.89266  eV     1   --> A              
     e( 41 - 41) =     23.63493  eV     1   --> A              
     e( 42 - 42) =     24.18940  eV     1   --> A              
     e( 43 - 43) =     24.40040  eV     1   --> A              
     e( 44 - 44) =     24.67468  eV     1   --> A              
     e( 45 - 45) =     24.99262  eV     1   --> A              
     e( 46 - 46) =     25.00048  eV     1   --> A              
     e( 47 - 47) =     25.37874  eV     1   --> A              
     e( 48 - 48) =     25.38485  eV     1   --> A              
     e( 49 - 49) =     25.46009  eV     1   --> A              
     e( 50 - 50) =     25.60197  eV     1   --> A              
     e( 51 - 51) =     25.86384  eV     1   --> A              
     e( 52 - 52) =     25.88986  eV     1   --> A              
     e( 53 - 53) =     26.17762  eV     1   --> A              
     e( 54 - 54) =     26.33209  eV     1   --> A              
     e( 55 - 55) =     26.45736  eV     1   --> A              
     e( 56 - 56) =     26.55553  eV     1   --> A              
     e( 57 - 57) =     26.78198  eV     1   --> A              
     e( 58 - 58) =     26.83574  eV     1   --> A              
     e( 59 - 59) =     26.99120  eV     1   --> A              
     e( 60 - 60) =     27.20092  eV     1   --> A              
     e( 61 - 61) =     27.21759  eV     1   --> A              
     e( 62 - 62) =     27.47010  eV     1   --> A              
     e( 63 - 63) =     27.68748  eV     1   --> A              
     e( 64 - 64) =     27.91837  eV     1   --> A              
     e( 65 - 65) =     27.97715  eV     1   --> A              
     e( 66 - 66) =     28.40991  eV     1   --> A              
     e( 67 - 67) =     28.67267  eV     1   --> A              
     e( 68 - 68) =     28.73582  eV     1   --> A              
     e( 69 - 69) =     28.79195  eV     1   --> A              
     e( 70 - 70) =     29.12509  eV     1   --> A              
     e( 71 - 71) =     29.54505  eV     1   --> A              
     e( 72 - 72) =     29.76551  eV     1   --> A              
     e( 73 - 73) =     30.05264  eV     1   --> A              
     e( 74 - 74) =     30.23937  eV     1   --> A              
     e( 75 - 75) =     30.33035  eV     1   --> A              
     e( 76 - 76) =     30.97358  eV     1   --> A              
     e( 77 - 77) =     31.10131  eV     1   --> A              
     e( 78 - 78) =     31.13420  eV     1   --> A              
     e( 79 - 79) =     31.79770  eV     1   --> A              
     e( 80 - 80) =     31.86237  eV     1   --> A              
     e( 81 - 81) =     32.17912  eV     1   --> A              
     e( 82 - 82) =     32.31293  eV     1   --> A              
     e( 83 - 83) =     33.04322  eV     1   --> A              
     e( 84 - 84) =     33.54551  eV     1   --> A              
     e( 85 - 85) =     33.63558  eV     1   --> A              
     e( 86 - 86) =     33.66450  eV     1   --> A              
     e( 87 - 87) =     33.99652  eV     1   --> A              
     e( 88 - 88) =     34.19194  eV     1   --> A              
     e( 89 - 89) =     34.41412  eV     1   --> A              
     e( 90 - 90) =     35.13479  eV     1   --> A              
     e( 91 - 91) =     35.18509  eV     1   --> A              
     e( 92 - 92) =     35.27810  eV     1   --> A              
     e( 93 - 93) =     35.31592  eV     1   --> A              
     e( 94 - 94) =     35.63147  eV     1   --> A              
     e( 95 - 95) =     36.35316  eV     1   --> A              
     e( 96 - 96) =     36.41560  eV     1   --> A              
     e( 97 - 97) =     36.92433  eV     1   --> A              
     e( 98 - 98) =     37.50357  eV     1   --> A              
     e( 99 - 99) =     37.52700  eV     1   --> A              
     e(100 -100) =     37.53533  eV     1   --> A              

 **************************************************************************

 **************************************************************************

                    xk=(   0.04175,  -0.02411,   0.00000  )

     Band symmetry, C_1 (1)     point group:

     e(  1 -  1) =    -15.54914  eV     1   --> A              
     e(  2 -  2) =    -14.33223  eV     1   --> A              
     e(  3 -  3) =     -6.98844  eV     1   --> A              
     e(  4 -  4) =     -3.80267  eV     1   --> A              
     e(  5 -  5) =     -3.71311  eV     1   --> A              
     e(  6 -  6) =     -3.26398  eV     1   --> A              
     e(  7 -  7) =     -2.60252  eV     1   --> A              
     e(  8 -  8) =     -2.45601  eV     1   --> A              
     e(  9 -  9) =     -1.25591  eV     1   --> A              
     e( 10 - 10) =      1.94936  eV     1   --> A              
     e( 11 - 11) =      2.05250  eV     1   --> A              
     e( 12 - 12) =      2.20855  eV     1   --> A              
     e( 13 - 13) =      2.27044  eV     1   --> A              
     e( 14 - 14) =      4.51575  eV     1   --> A              
     e( 15 - 15) =      4.71950  eV     1   --> A              
     e( 16 - 16) =      5.49286  eV     1   --> A              
     e( 17 - 17) =      5.83868  eV     1   --> A              
     e( 18 - 18) =      6.99403  eV     1   --> A              
     e( 19 - 19) =      8.36661  eV     1   --> A              
     e( 20 - 20) =      8.38519  eV     1   --> A              
     e( 21 - 21) =      9.78227  eV     1   --> A              
     e( 22 - 22) =      9.96542  eV     1   --> A              
     e( 23 - 23) =     10.49948  eV     1   --> A              
     e( 24 - 24) =     11.82974  eV     1   --> A              
     e( 25 - 25) =     11.90502  eV     1   --> A              
     e( 26 - 26) =     12.14314  eV     1   --> A              
     e( 27 - 27) =     12.91393  eV     1   --> A              
     e( 28 - 28) =     14.97258  eV     1   --> A              
     e( 29 - 29) =     15.53634  eV     1   --> A              
     e( 30 - 30) =     15.81102  eV     1   --> A              
     e( 31 - 31) =     15.99068  eV     1   --> A              
     e( 32 - 32) =     15.99597  eV     1   --> A              
     e( 33 - 33) =     16.28164  eV     1   --> A              
     e( 34 - 34) =     16.36369  eV     1   --> A              
     e( 35 - 35) =     19.06134  eV     1   --> A              
     e( 36 - 36) =     19.55955  eV     1   --> A              
     e( 37 - 37) =     20.73654  eV     1   --> A              
     e( 38 - 38) =     21.16682  eV     1   --> A              
     e( 39 - 39) =     22.69783  eV     1   --> A              
     e( 40 - 40) =     22.93197  eV     1   --> A              
     e( 41 - 41) =     23.16404  eV     1   --> A              
     e( 42 - 42) =     23.96893  eV     1   --> A              
     e( 43 - 43) =     23.99111  eV     1   --> A              
     e( 44 - 44) =     24.38218  eV     1   --> A              
     e( 45 - 45) =     24.69909  eV     1   --> A              
     e( 46 - 46) =     24.79980  eV     1   --> A              
     e( 47 - 47) =     25.20754  eV     1   --> A              
     e( 48 - 48) =     25.50082  eV     1   --> A              
     e( 49 - 49) =     25.59758  eV     1   --> A              
     e( 50 - 50) =     25.64918  eV     1   --> A              
     e( 51 - 51) =     25.72970  eV     1   --> A              
     e( 52 - 52) =     25.81509  eV     1   --> A              
     e( 53 - 53) =     25.84798  eV     1   --> A              
     e( 54 - 54) =     26.51543  eV     1   --> A              
     e( 55 - 55) =     26.58229  eV     1   --> A              
     e( 56 - 56) =     26.59364  eV     1   --> A              
     e( 57 - 57) =     26.74424  eV     1   --> A              
     e( 58 - 58) =     26.91058  eV     1   --> A              
     e( 59 - 59) =     27.11676  eV     1   --> A              
     e( 60 - 60) =     27.23996  eV     1   --> A              
     e( 61 - 61) =     27.42369  eV     1   --> A              
     e( 62 - 62) =     27.66316  eV     1   --> A              
     e( 63 - 63) =     27.79638  eV     1   --> A              
     e( 64 - 64) =     28.16938  eV     1   --> A              
     e( 65 - 65) =     28.31105  eV     1   --> A              
     e( 66 - 66) =     28.39921  eV     1   --> A              
     e( 67 - 67) =     28.48160  eV     1   --> A              
     e( 68 - 68) =     28.65850  eV     1   --> A              
     e( 69 - 69) =     28.75388  eV     1   --> A              
     e( 70 - 70) =     29.23412  eV     1   --> A              
     e( 71 - 71) =     29.59850  eV     1   --> A              
     e( 72 - 72) =     29.66749  eV     1   --> A              
     e( 73 - 73) =     30.15748  eV     1   --> A              
     e( 74 - 74) =     30.27536  eV     1   --> A              
     e( 75 - 75) =     30.48570  eV     1   --> A              
     e( 76 - 76) =     31.11901  eV     1   --> A              
     e( 77 - 77) =     31.28294  eV     1   --> A              
     e( 78 - 78) =     31.31200  eV     1   --> A              
     e( 79 - 79) =     31.65133  eV     1   --> A              
     e( 80 - 80) =     31.76191  eV     1   --> A              
     e( 81 - 81) =     32.28642  eV     1   --> A              
     e( 82 - 82) =     32.39269  eV     1   --> A              
     e( 83 - 83) =     32.80656  eV     1   --> A              
     e( 84 - 84) =     33.41565  eV     1   --> A              
     e( 85 - 85) =     33.63969  eV     1   --> A              
     e( 86 - 86) =     33.80575  eV     1   --> A              
     e( 87 - 87) =     34.18366  eV     1   --> A              
     e( 88 - 88) =     34.18494  eV     1   --> A              
     e( 89 - 89) =     34.45817  eV     1   --> A              
     e( 90 - 90) =     35.03856  eV     1   --> A              
     e( 91 - 91) =     35.24518  eV     1   --> A              
     e( 92 - 92) =     35.25358  eV     1   --> A              
     e( 93 - 93) =     35.32089  eV     1   --> A              
     e( 94 - 94) =     35.80778  eV     1   --> A              
     e( 95 - 95) =     36.32417  eV     1   --> A              
     e( 96 - 96) =     36.43692  eV     1   --> A              
     e( 97 - 97) =     36.91319  eV     1   --> A              
     e( 98 - 98) =     37.41034  eV     1   --> A              
     e( 99 - 99) =     37.52439  eV     1   --> A              
     e(100 -100) =     37.79830  eV     1   --> A              

 **************************************************************************

 **************************************************************************

                    xk=(   0.05567,  -0.03214,   0.00000  )

     Band symmetry, C_1 (1)     point group:

     e(  1 -  1) =    -15.52837  eV     1   --> A              
     e(  2 -  2) =    -14.31977  eV     1   --> A              
     e(  3 -  3) =     -6.96576  eV     1   --> A              
     e(  4 -  4) =     -3.85157  eV     1   --> A              
     e(  5 -  5) =     -3.69119  eV     1   --> A              
     e(  6 -  6) =     -3.34788  eV     1   --> A              
     e(  7 -  7) =     -2.63809  eV     1   --> A              
     e(  8 -  8) =     -2.40448  eV     1   --> A              
     e(  9 -  9) =     -1.26188  eV     1   --> A              
     e( 10 - 10) =      1.91691  eV     1   --> A              
     e( 11 - 11) =      2.09487  eV     1   --> A              
     e( 12 - 12) =      2.13448  eV     1   --> A              
     e( 13 - 13) =      2.24215  eV     1   --> A              
     e( 14 - 14) =      4.55340  eV     1   --> A              
     e( 15 - 15) =      4.74780  eV     1   --> A              
     e( 16 - 16) =      5.56736  eV     1   --> A              
     e( 17 - 17) =      5.89865  eV     1   --> A              
     e( 18 - 18) =      7.02047  eV     1   --> A              
     e( 19 - 19) =      8.39052  eV     1   --> A              
     e( 20 - 20) =      8.48319  eV     1   --> A              
     e( 21 - 21) =      9.71732  eV     1   --> A              
     e( 22 - 22) =     10.03778  eV     1   --> A              
     e( 23 - 23) =     10.51795  eV     1   --> A              
     e( 24 - 24) =     11.74076  eV     1   --> A              
     e( 25 - 25) =     11.88330  eV     1   --> A              
     e( 26 - 26) =     12.14034  eV     1   --> A              
     e( 27 - 27) =     12.90456  eV     1   --> A              
     e( 28 - 28) =     14.94827  eV     1   --> A              
     e( 29 - 29) =     15.44386  eV     1   --> A              
     e( 30 - 30) =     15.86856  eV     1   --> A              
     e( 31 - 31) =     15.99485  eV     1   --> A              
     e( 32 - 32) =     16.20218  eV     1   --> A              
     e( 33 - 33) =     16.20696  eV     1   --> A              
     e( 34 - 34) =     16.36227  eV     1   --> A              
     e( 35 - 35) =     19.11236  eV     1   --> A              
     e( 36 - 36) =     19.78225  eV     1   --> A              
     e( 37 - 37) =     20.76722  eV     1   --> A              
     e( 38 - 38) =     21.13625  eV     1   --> A              
     e( 39 - 39) =     22.56287  eV     1   --> A              
     e( 40 - 40) =     22.68651  eV     1   --> A              
     e( 41 - 41) =     22.97791  eV     1   --> A              
     e( 42 - 42) =     23.55058  eV     1   --> A              
     e( 43 - 43) =     23.78238  eV     1   --> A              
     e( 44 - 44) =     24.08107  eV     1   --> A              
     e( 45 - 45) =     24.31600  eV     1   --> A              
     e( 46 - 46) =     24.60537  eV     1   --> A              
     e( 47 - 47) =     24.90478  eV     1   --> A              
     e( 48 - 48) =     25.20005  eV     1   --> A              
     e( 49 - 49) =     25.52553  eV     1   --> A              
     e( 50 - 50) =     25.59862  eV     1   --> A              
     e( 51 - 51) =     25.74137  eV     1   --> A              
     e( 52 - 52) =     25.79046  eV     1   --> A              
     e( 53 - 53) =     26.00232  eV     1   --> A              
     e( 54 - 54) =     26.47374  eV     1   --> A              
     e( 55 - 55) =     26.48156  eV     1   --> A              
     e( 56 - 56) =     26.65759  eV     1   --> A              
     e( 57 - 57) =     26.98218  eV     1   --> A              
     e( 58 - 58) =     27.02001  eV     1   --> A              
     e( 59 - 59) =     27.05074  eV     1   --> A              
     e( 60 - 60) =     27.50221  eV     1   --> A              
     e( 61 - 61) =     27.64172  eV     1   --> A              
     e( 62 - 62) =     27.78064  eV     1   --> A              
     e( 63 - 63) =     27.93727  eV     1   --> A              
     e( 64 - 64) =     28.20119  eV     1   --> A              
     e( 65 - 65) =     28.38171  eV     1   --> A              
     e( 66 - 66) =     28.41623  eV     1   --> A              
     e( 67 - 67) =     28.51625  eV     1   --> A              
     e( 68 - 68) =     28.64947  eV     1   --> A              
     e( 69 - 69) =     28.92156  eV     1   --> A              
     e( 70 - 70) =     29.44142  eV     1   --> A              
     e( 71 - 71) =     29.64455  eV     1   --> A              
     e( 72 - 72) =     29.85069  eV     1   --> A              
     e( 73 - 73) =     30.04377  eV     1   --> A              
     e( 74 - 74) =     30.47812  eV     1   --> A              
     e( 75 - 75) =     30.54819  eV     1   --> A              
     e( 76 - 76) =     31.02502  eV     1   --> A              
     e( 77 - 77) =     31.44688  eV     1   --> A              
     e( 78 - 78) =     31.53970  eV     1   --> A              
     e( 79 - 79) =     31.59263  eV     1   --> A              
     e( 80 - 80) =     31.99370  eV     1   --> A              
     e( 81 - 81) =     32.16324  eV     1   --> A              
     e( 82 - 82) =     32.27660  eV     1   --> A              
     e( 83 - 83) =     33.05215  eV     1   --> A              
     e( 84 - 84) =     33.27196  eV     1   --> A              
     e( 85 - 85) =     33.57321  eV     1   --> A              
     e( 86 - 86) =     33.95274  eV     1   --> A              
     e( 87 - 87) =     34.11309  eV     1   --> A              
     e( 88 - 88) =     34.32404  eV     1   --> A              
     e( 89 - 89) =     34.48415  eV     1   --> A              
     e( 90 - 90) =     34.79635  eV     1   --> A              
     e( 91 - 91) =     35.17405  eV     1   --> A              
     e( 92 - 92) =     35.35562  eV     1   --> A              
     e( 93 - 93) =     35.46962  eV     1   --> A              
     e( 94 - 94) =     36.07612  eV     1   --> A              
     e( 95 - 95) =     36.40112  eV     1   --> A              
     e( 96 - 96) =     36.44702  eV     1   --> A              
     e( 97 - 97) =     36.90262  eV     1   --> A              
     e( 98 - 98) =     37.29584  eV     1   --> A              
     e( 99 - 99) =     37.57408  eV     1   --> A              
     e(100 -100) =     37.70181  eV     1   --> A              

 **************************************************************************

 **************************************************************************

                    xk=(   0.06959,  -0.04018,   0.00000  )

     Band symmetry, C_1 (1)     point group:

     e(  1 -  1) =    -15.50181  eV     1   --> A              
     e(  2 -  2) =    -14.30385  eV     1   --> A              
     e(  3 -  3) =     -6.93703  eV     1   --> A              
     e(  4 -  4) =     -3.91245  eV     1   --> A              
     e(  5 -  5) =     -3.66321  eV     1   --> A              
     e(  6 -  6) =     -3.44079  eV     1   --> A              
     e(  7 -  7) =     -2.68236  eV     1   --> A              
     e(  8 -  8) =     -2.35457  eV     1   --> A              
     e(  9 -  9) =     -1.27057  eV     1   --> A              
     e( 10 - 10) =      1.88060  eV     1   --> A              
     e( 11 - 11) =      2.04646  eV     1   --> A              
     e( 12 - 12) =      2.14753  eV     1   --> A              
     e( 13 - 13) =      2.20695  eV     1   --> A              
     e( 14 - 14) =      4.59896  eV     1   --> A              
     e( 15 - 15) =      4.78401  eV     1   --> A              
     e( 16 - 16) =      5.64873  eV     1   --> A              
     e( 17 - 17) =      5.98615  eV     1   --> A              
     e( 18 - 18) =      7.05429  eV     1   --> A              
     e( 19 - 19) =      8.41975  eV     1   --> A              
     e( 20 - 20) =      8.60254  eV     1   --> A              
     e( 21 - 21) =      9.64280  eV     1   --> A              
     e( 22 - 22) =     10.12943  eV     1   --> A              
     e( 23 - 23) =     10.53789  eV     1   --> A              
     e( 24 - 24) =     11.56039  eV     1   --> A              
     e( 25 - 25) =     11.94428  eV     1   --> A              
     e( 26 - 26) =     12.13861  eV     1   --> A              
     e( 27 - 27) =     12.88836  eV     1   --> A              
     e( 28 - 28) =     14.87197  eV     1   --> A              
     e( 29 - 29) =     15.38832  eV     1   --> A              
     e( 30 - 30) =     15.94039  eV     1   --> A              
     e( 31 - 31) =     15.98001  eV     1   --> A              
     e( 32 - 32) =     16.10314  eV     1   --> A              
     e( 33 - 33) =     16.38455  eV     1   --> A              
     e( 34 - 34) =     16.45928  eV     1   --> A              
     e( 35 - 35) =     19.17808  eV     1   --> A              
     e( 36 - 36) =     20.04068  eV     1   --> A              
     e( 37 - 37) =     20.80607  eV     1   --> A              
     e( 38 - 38) =     21.09146  eV     1   --> A              
     e( 39 - 39) =     22.20915  eV     1   --> A              
     e( 40 - 40) =     22.36492  eV     1   --> A              
     e( 41 - 41) =     23.01939  eV     1   --> A              
     e( 42 - 42) =     23.17817  eV     1   --> A              
     e( 43 - 43) =     23.57275  eV     1   --> A              
     e( 44 - 44) =     23.77587  eV     1   --> A              
     e( 45 - 45) =     23.90298  eV     1   --> A              
     e( 46 - 46) =     24.42686  eV     1   --> A              
     e( 47 - 47) =     24.63210  eV     1   --> A              
     e( 48 - 48) =     24.74791  eV     1   --> A              
     e( 49 - 49) =     25.30846  eV     1   --> A              
     e( 50 - 50) =     25.54488  eV     1   --> A              
     e( 51 - 51) =     25.75026  eV     1   --> A              
     e( 52 - 52) =     25.78593  eV     1   --> A              
     e( 53 - 53) =     26.00399  eV     1   --> A              
     e( 54 - 54) =     26.51472  eV     1   --> A              
     e( 55 - 55) =     26.51644  eV     1   --> A              
     e( 56 - 56) =     26.61808  eV     1   --> A              
     e( 57 - 57) =     26.88376  eV     1   --> A              
     e( 58 - 58) =     27.14866  eV     1   --> A              
     e( 59 - 59) =     27.21597  eV     1   --> A              
     e( 60 - 60) =     27.72591  eV     1   --> A              
     e( 61 - 61) =     27.76104  eV     1   --> A              
     e( 62 - 62) =     27.87056  eV     1   --> A              
     e( 63 - 63) =     27.95236  eV     1   --> A              
     e( 64 - 64) =     28.13914  eV     1   --> A              
     e( 65 - 65) =     28.49140  eV     1   --> A              
     e( 66 - 66) =     28.56324  eV     1   --> A              
     e( 67 - 67) =     28.61604  eV     1   --> A              
     e( 68 - 68) =     28.89435  eV     1   --> A              
     e( 69 - 69) =     29.30343  eV     1   --> A              
     e( 70 - 70) =     29.34348  eV     1   --> A              
     e( 71 - 71) =     29.68183  eV     1   --> A              
     e( 72 - 72) =     30.03357  eV     1   --> A              
     e( 73 - 73) =     30.38786  eV     1   --> A              
     e( 74 - 74) =     30.43575  eV     1   --> A              
     e( 75 - 75) =     30.57237  eV     1   --> A              
     e( 76 - 76) =     31.10574  eV     1   --> A              
     e( 77 - 77) =     31.34523  eV     1   --> A              
     e( 78 - 78) =     31.65619  eV     1   --> A              
     e( 79 - 79) =     31.76405  eV     1   --> A              
     e( 80 - 80) =     32.03823  eV     1   --> A              
     e( 81 - 81) =     32.12541  eV     1   --> A              
     e( 82 - 82) =     32.45041  eV     1   --> A              
     e( 83 - 83) =     33.13540  eV     1   --> A              
     e( 84 - 84) =     33.38490  eV     1   --> A              
     e( 85 - 85) =     33.51191  eV     1   --> A              
     e( 86 - 86) =     33.97210  eV     1   --> A              
     e( 87 - 87) =     34.07165  eV     1   --> A              
     e( 88 - 88) =     34.38705  eV     1   --> A              
     e( 89 - 89) =     34.49711  eV     1   --> A              
     e( 90 - 90) =     34.66864  eV     1   --> A              
     e( 91 - 91) =     35.14991  eV     1   --> A              
     e( 92 - 92) =     35.36639  eV     1   --> A              
     e( 93 - 93) =     35.60768  eV     1   --> A              
     e( 94 - 94) =     36.36465  eV     1   --> A              
     e( 95 - 95) =     36.48137  eV     1   --> A              
     e( 96 - 96) =     36.56547  eV     1   --> A              
     e( 97 - 97) =     36.87475  eV     1   --> A              
     e( 98 - 98) =     37.17574  eV     1   --> A              
     e( 99 - 99) =     37.48065  eV     1   --> A              
     e(100 -100) =     37.68043  eV     1   --> A              

 **************************************************************************

 **************************************************************************

                    xk=(   0.08351,  -0.04821,   0.00000  )

     Band symmetry, C_1 (1)     point group:

     e(  1 -  1) =    -15.46952  eV     1   --> A              
     e(  2 -  2) =    -14.28452  eV     1   --> A              
     e(  3 -  3) =     -6.90259  eV     1   --> A              
     e(  4 -  4) =     -3.98397  eV     1   --> A              
     e(  5 -  5) =     -3.62931  eV     1   --> A              
     e(  6 -  6) =     -3.53974  eV     1   --> A              
     e(  7 -  7) =     -2.73437  eV     1   --> A              
     e(  8 -  8) =     -2.31011  eV     1   --> A              
     e(  9 -  9) =     -1.28273  eV     1   --> A              
     e( 10 - 10) =      1.84375  eV     1   --> A              
     e( 11 - 11) =      1.94850  eV     1   --> A              
     e( 12 - 12) =      2.16568  eV     1   --> A              
     e( 13 - 13) =      2.20928  eV     1   --> A              
     e( 14 - 14) =      4.65142  eV     1   --> A              
     e( 15 - 15) =      4.82801  eV     1   --> A              
     e( 16 - 16) =      5.72930  eV     1   --> A              
     e( 17 - 17) =      6.10598  eV     1   --> A              
     e( 18 - 18) =      7.09533  eV     1   --> A              
     e( 19 - 19) =      8.45313  eV     1   --> A              
     e( 20 - 20) =      8.73809  eV     1   --> A              
     e( 21 - 21) =      9.56344  eV     1   --> A              
     e( 22 - 22) =     10.23938  eV     1   --> A              
     e( 23 - 23) =     10.55409  eV     1   --> A              
     e( 24 - 24) =     11.38017  eV     1   --> A              
     e( 25 - 25) =     12.00828  eV     1   --> A              
     e( 26 - 26) =     12.13915  eV     1   --> A              
     e( 27 - 27) =     12.86373  eV     1   --> A              
     e( 28 - 28) =     14.74067  eV     1   --> A              
     e( 29 - 29) =     15.38247  eV     1   --> A              
     e( 30 - 30) =     15.94187  eV     1   --> A              
     e( 31 - 31) =     15.98647  eV     1   --> A              
     e( 32 - 32) =     16.02508  eV     1   --> A              
     e( 33 - 33) =     16.43704  eV     1   --> A              
     e( 34 - 34) =     16.74330  eV     1   --> A              
     e( 35 - 35) =     19.25742  eV     1   --> A              
     e( 36 - 36) =     20.32098  eV     1   --> A              
     e( 37 - 37) =     20.85173  eV     1   --> A              
     e( 38 - 38) =     21.02606  eV     1   --> A              
     e( 39 - 39) =     21.73886  eV     1   --> A              
     e( 40 - 40) =     22.08820  eV     1   --> A              
     e( 41 - 41) =     22.86481  eV     1   --> A              
     e( 42 - 42) =     23.03986  eV     1   --> A              
     e( 43 - 43) =     23.36648  eV     1   --> A              
     e( 44 - 44) =     23.46030  eV     1   --> A              
     e( 45 - 45) =     23.50759  eV     1   --> A              
     e( 46 - 46) =     24.27924  eV     1   --> A              
     e( 47 - 47) =     24.31951  eV     1   --> A              
     e( 48 - 48) =     24.38075  eV     1   --> A              
     e( 49 - 49) =     25.09293  eV     1   --> A              
     e( 50 - 50) =     25.34830  eV     1   --> A              
     e( 51 - 51) =     25.65130  eV     1   --> A              
     e( 52 - 52) =     25.78755  eV     1   --> A              
     e( 53 - 53) =     25.84251  eV     1   --> A              
     e( 54 - 54) =     26.25774  eV     1   --> A              
     e( 55 - 55) =     26.69618  eV     1   --> A              
     e( 56 - 56) =     26.70866  eV     1   --> A              
     e( 57 - 57) =     27.07534  eV     1   --> A              
     e( 58 - 58) =     27.22346  eV     1   --> A              
     e( 59 - 59) =     27.28702  eV     1   --> A              
     e( 60 - 60) =     27.39666  eV     1   --> A              
     e( 61 - 61) =     27.72756  eV     1   --> A              
     e( 62 - 62) =     27.95699  eV     1   --> A              
     e( 63 - 63) =     28.26683  eV     1   --> A              
     e( 64 - 64) =     28.41741  eV     1   --> A              
     e( 65 - 65) =     28.68443  eV     1   --> A              
     e( 66 - 66) =     28.72623  eV     1   --> A              
     e( 67 - 67) =     28.76267  eV     1   --> A              
     e( 68 - 68) =     28.96357  eV     1   --> A              
     e( 69 - 69) =     29.39393  eV     1   --> A              
     e( 70 - 70) =     29.61515  eV     1   --> A              
     e( 71 - 71) =     29.74271  eV     1   --> A              
     e( 72 - 72) =     30.09576  eV     1   --> A              
     e( 73 - 73) =     30.47007  eV     1   --> A              
     e( 74 - 74) =     30.56115  eV     1   --> A              
     e( 75 - 75) =     30.90959  eV     1   --> A              
     e( 76 - 76) =     31.24778  eV     1   --> A              
     e( 77 - 77) =     31.32930  eV     1   --> A              
     e( 78 - 78) =     31.44274  eV     1   --> A              
     e( 79 - 79) =     31.95789  eV     1   --> A              
     e( 80 - 80) =     32.11741  eV     1   --> A              
     e( 81 - 81) =     32.26914  eV     1   --> A              
     e( 82 - 82) =     32.72887  eV     1   --> A              
     e( 83 - 83) =     33.03464  eV     1   --> A              
     e( 84 - 84) =     33.51290  eV     1   --> A              
     e( 85 - 85) =     33.53602  eV     1   --> A              
     e( 86 - 86) =     33.79137  eV     1   --> A              
     e( 87 - 87) =     34.21010  eV     1   --> A              
     e( 88 - 88) =     34.41842  eV     1   --> A              
     e( 89 - 89) =     34.51084  eV     1   --> A              
     e( 90 - 90) =     34.73700  eV     1   --> A              
     e( 91 - 91) =     35.17883  eV     1   --> A              
     e( 92 - 92) =     35.29356  eV     1   --> A              
     e( 93 - 93) =     35.70745  eV     1   --> A              
     e( 94 - 94) =     36.53463  eV     1   --> A              
     e( 95 - 95) =     36.54542  eV     1   --> A              
     e( 96 - 96) =     36.77479  eV     1   --> A              
     e( 97 - 97) =     36.79997  eV     1   --> A              
     e( 98 - 98) =     37.07256  eV     1   --> A              
     e( 99 - 99) =     37.38025  eV     1   --> A              
     e(100 -100) =     37.65440  eV     1   --> A              

 **************************************************************************

 **************************************************************************

                    xk=(   0.09742,  -0.05625,   0.00000  )

     Band symmetry, C_1 (1)     point group:

     e(  1 -  1) =    -15.43159  eV     1   --> A              
     e(  2 -  2) =    -14.26185  eV     1   --> A              
     e(  3 -  3) =     -6.86291  eV     1   --> A              
     e(  4 -  4) =     -4.06464  eV     1   --> A              
     e(  5 -  5) =     -3.64294  eV     1   --> A              
     e(  6 -  6) =     -3.58967  eV     1   --> A              
     e(  7 -  7) =     -2.79310  eV     1   --> A              
     e(  8 -  8) =     -2.27374  eV     1   --> A              
     e(  9 -  9) =     -1.29926  eV     1   --> A              
     e( 10 - 10) =      1.80974  eV     1   --> A              
     e( 11 - 11) =      1.84464  eV     1   --> A              
     e( 12 - 12) =      2.11922  eV     1   --> A              
     e( 13 - 13) =      2.27881  eV     1   --> A              
     e( 14 - 14) =      4.71010  eV     1   --> A              
     e( 15 - 15) =      4.87966  eV     1   --> A              
     e( 16 - 16) =      5.80642  eV     1   --> A              
     e( 17 - 17) =      6.25743  eV     1   --> A              
     e( 18 - 18) =      7.14336  eV     1   --> A              
     e( 19 - 19) =      8.48923  eV     1   --> A              
     e( 20 - 20) =      8.88295  eV     1   --> A              
     e( 21 - 21) =      9.48390  eV     1   --> A              
     e( 22 - 22) =     10.36652  eV     1   --> A              
     e( 23 - 23) =     10.55638  eV     1   --> A              
     e( 24 - 24) =     11.22063  eV     1   --> A              
     e( 25 - 25) =     12.07020  eV     1   --> A              
     e( 26 - 26) =     12.14325  eV     1   --> A              
     e( 27 - 27) =     12.83056  eV     1   --> A              
     e( 28 - 28) =     14.57613  eV     1   --> A              
     e( 29 - 29) =     15.41252  eV     1   --> A              
     e( 30 - 30) =     15.85424  eV     1   --> A              
     e( 31 - 31) =     15.88492  eV     1   --> A              
     e( 32 - 32) =     16.12103  eV     1   --> A              
     e( 33 - 33) =     16.51729  eV     1   --> A              
     e( 34 - 34) =     17.05120  eV     1   --> A              
     e( 35 - 35) =     19.34727  eV     1   --> A              
     e( 36 - 36) =     20.59947  eV     1   --> A              
     e( 37 - 37) =     20.89835  eV     1   --> A              
     e( 38 - 38) =     20.92549  eV     1   --> A              
     e( 39 - 39) =     21.29583  eV     1   --> A              
     e( 40 - 40) =     21.76360  eV     1   --> A              
     e( 41 - 41) =     22.56326  eV     1   --> A              
     e( 42 - 42) =     23.01971  eV     1   --> A              
     e( 43 - 43) =     23.12488  eV     1   --> A              
     e( 44 - 44) =     23.16575  eV     1   --> A              
     e( 45 - 45) =     23.18264  eV     1   --> A              
     e( 46 - 46) =     23.93280  eV     1   --> A              
     e( 47 - 47) =     24.14232  eV     1   --> A              
     e( 48 - 48) =     24.17349  eV     1   --> A              
     e( 49 - 49) =     24.89106  eV     1   --> A              
     e( 50 - 50) =     25.12284  eV     1   --> A              
     e( 51 - 51) =     25.47095  eV     1   --> A              
     e( 52 - 52) =     25.52801  eV     1   --> A              
     e( 53 - 53) =     25.67710  eV     1   --> A              
     e( 54 - 54) =     26.16702  eV     1   --> A              
     e( 55 - 55) =     26.74804  eV     1   --> A              
     e( 56 - 56) =     26.92743  eV     1   --> A              
     e( 57 - 57) =     27.06505  eV     1   --> A              
     e( 58 - 58) =     27.10375  eV     1   --> A              
     e( 59 - 59) =     27.23888  eV     1   --> A              
     e( 60 - 60) =     27.45121  eV     1   --> A              
     e( 61 - 61) =     27.89421  eV     1   --> A              
     e( 62 - 62) =     27.95588  eV     1   --> A              
     e( 63 - 63) =     28.45208  eV     1   --> A              
     e( 64 - 64) =     28.61971  eV     1   --> A              
     e( 65 - 65) =     28.75052  eV     1   --> A              
     e( 66 - 66) =     28.91775  eV     1   --> A              
     e( 67 - 67) =     28.98154  eV     1   --> A              
     e( 68 - 68) =     28.99616  eV     1   --> A              
     e( 69 - 69) =     29.60027  eV     1   --> A              
     e( 70 - 70) =     29.69852  eV     1   --> A              
     e( 71 - 71) =     29.99332  eV     1   --> A              
     e( 72 - 72) =     30.25731  eV     1   --> A              
     e( 73 - 73) =     30.36802  eV     1   --> A              
     e( 74 - 74) =     30.82130  eV     1   --> A              
     e( 75 - 75) =     30.96441  eV     1   --> A              
     e( 76 - 76) =     31.42966  eV     1   --> A              
     e( 77 - 77) =     31.46565  eV     1   --> A              
     e( 78 - 78) =     31.66461  eV     1   --> A              
     e( 79 - 79) =     32.07535  eV     1   --> A              
     e( 80 - 80) =     32.14548  eV     1   --> A              
     e( 81 - 81) =     32.48233  eV     1   --> A              
     e( 82 - 82) =     32.82730  eV     1   --> A              
     e( 83 - 83) =     33.01651  eV     1   --> A              
     e( 84 - 84) =     33.50983  eV     1   --> A              
     e( 85 - 85) =     33.51869  eV     1   --> A              
     e( 86 - 86) =     33.68997  eV     1   --> A              
     e( 87 - 87) =     34.38663  eV     1   --> A              
     e( 88 - 88) =     34.45368  eV     1   --> A              
     e( 89 - 89) =     34.62970  eV     1   --> A              
     e( 90 - 90) =     34.89733  eV     1   --> A              
     e( 91 - 91) =     35.23603  eV     1   --> A              
     e( 92 - 92) =     35.24715  eV     1   --> A              
     e( 93 - 93) =     35.73628  eV     1   --> A              
     e( 94 - 94) =     36.58110  eV     1   --> A              
     e( 95 - 95) =     36.60458  eV     1   --> A              
     e( 96 - 96) =     36.65598  eV     1   --> A              
     e( 97 - 97) =     36.78804  eV     1   --> A              
     e( 98 - 98) =     37.01465  eV     1   --> A              
     e( 99 - 99) =     37.58406  eV     1   --> A              
     e(100 -100) =     37.61589  eV     1   --> A              

 **************************************************************************

 **************************************************************************

                    xk=(   0.11134,  -0.06428,   0.00000  )

     Band symmetry, C_1 (1)     point group:

     e(  1 -  1) =    -15.38817  eV     1   --> A              
     e(  2 -  2) =    -14.23592  eV     1   --> A              
     e(  3 -  3) =     -6.81856  eV     1   --> A              
     e(  4 -  4) =     -4.15284  eV     1   --> A              
     e(  5 -  5) =     -3.74929  eV     1   --> A              
     e(  6 -  6) =     -3.54452  eV     1   --> A              
     e(  7 -  7) =     -2.85748  eV     1   --> A              
     e(  8 -  8) =     -2.24735  eV     1   --> A              
     e(  9 -  9) =     -1.32114  eV     1   --> A              
     e( 10 - 10) =      1.73876  eV     1   --> A              
     e( 11 - 11) =      1.78174  eV     1   --> A              
     e( 12 - 12) =      2.06857  eV     1   --> A              
     e( 13 - 13) =      2.35473  eV     1   --> A              
     e( 14 - 14) =      4.77458  eV     1   --> A              
     e( 15 - 15) =      4.93877  eV     1   --> A              
     e( 16 - 16) =      5.88171  eV     1   --> A              
     e( 17 - 17) =      6.43502  eV     1   --> A              
     e( 18 - 18) =      7.19810  eV     1   --> A              
     e( 19 - 19) =      8.52633  eV     1   --> A              
     e( 20 - 20) =      9.02708  eV     1   --> A              
     e( 21 - 21) =      9.40886  eV     1   --> A              
     e( 22 - 22) =     10.50954  eV     1   --> A              
     e( 23 - 23) =     10.52963  eV     1   --> A              
     e( 24 - 24) =     11.10832  eV     1   --> A              
     e( 25 - 25) =     12.12341  eV     1   --> A              
     e( 26 - 26) =     12.15225  eV     1   --> A              
     e( 27 - 27) =     12.79156  eV     1   --> A              
     e( 28 - 28) =     14.39855  eV     1   --> A              
     e( 29 - 29) =     15.46467  eV     1   --> A              
     e( 30 - 30) =     15.70855  eV     1   --> A              
     e( 31 - 31) =     15.81578  eV     1   --> A              
     e( 32 - 32) =     16.22653  eV     1   --> A              
     e( 33 - 33) =     16.62024  eV     1   --> A              
     e( 34 - 34) =     17.37667  eV     1   --> A              
     e( 35 - 35) =     19.43963  eV     1   --> A              
     e( 36 - 36) =     20.65413  eV     1   --> A              
     e( 37 - 37) =     20.76066  eV     1   --> A              
     e( 38 - 38) =     20.98165  eV     1   --> A              
     e( 39 - 39) =     21.05403  eV     1   --> A              
     e( 40 - 40) =     21.45927  eV     1   --> A              
     e( 41 - 41) =     22.22069  eV     1   --> A              
     e( 42 - 42) =     22.76400  eV     1   --> A              
     e( 43 - 43) =     22.94641  eV     1   --> A              
     e( 44 - 44) =     22.95804  eV     1   --> A              
     e( 45 - 45) =     22.97188  eV     1   --> A              
     e( 46 - 46) =     23.60246  eV     1   --> A              
     e( 47 - 47) =     23.91166  eV     1   --> A              
     e( 48 - 48) =     24.10182  eV     1   --> A              
     e( 49 - 49) =     24.72245  eV     1   --> A              
     e( 50 - 50) =     24.86130  eV     1   --> A              
     e( 51 - 51) =     25.25458  eV     1   --> A              
     e( 52 - 52) =     25.27968  eV     1   --> A              
     e( 53 - 53) =     25.34190  eV     1   --> A              
     e( 54 - 54) =     26.29401  eV     1   --> A              
     e( 55 - 55) =     26.43992  eV     1   --> A              
     e( 56 - 56) =     26.85402  eV     1   --> A              
     e( 57 - 57) =     27.10809  eV     1   --> A              
     e( 58 - 58) =     27.16195  eV     1   --> A              
     e( 59 - 59) =     27.27261  eV     1   --> A              
     e( 60 - 60) =     27.65927  eV     1   --> A              
     e( 61 - 61) =     27.89574  eV     1   --> A              
     e( 62 - 62) =     28.24178  eV     1   --> A              
     e( 63 - 63) =     28.49758  eV     1   --> A              
     e( 64 - 64) =     28.51852  eV     1   --> A              
     e( 65 - 65) =     28.60057  eV     1   --> A              
     e( 66 - 66) =     29.05793  eV     1   --> A              
     e( 67 - 67) =     29.25937  eV     1   --> A              
     e( 68 - 68) =     29.40831  eV     1   --> A              
     e( 69 - 69) =     29.79435  eV     1   --> A              
     e( 70 - 70) =     29.87634  eV     1   --> A              
     e( 71 - 71) =     30.04043  eV     1   --> A              
     e( 72 - 72) =     30.26253  eV     1   --> A              
     e( 73 - 73) =     30.70285  eV     1   --> A              
     e( 74 - 74) =     30.71338  eV     1   --> A              
     e( 75 - 75) =     31.05994  eV     1   --> A              
     e( 76 - 76) =     31.70608  eV     1   --> A              
     e( 77 - 77) =     31.92954  eV     1   --> A              
     e( 78 - 78) =     31.99879  eV     1   --> A              
     e( 79 - 79) =     32.07928  eV     1   --> A              
     e( 80 - 80) =     32.25188  eV     1   --> A              
     e( 81 - 81) =     32.59207  eV     1   --> A              
     e( 82 - 82) =     32.76597  eV     1   --> A              
     e( 83 - 83) =     33.11849  eV     1   --> A              
     e( 84 - 84) =     33.22832  eV     1   --> A              
     e( 85 - 85) =     33.48420  eV     1   --> A              
     e( 86 - 86) =     33.99239  eV     1   --> A              
     e( 87 - 87) =     34.37806  eV     1   --> A              
     e( 88 - 88) =     34.50691  eV     1   --> A              
     e( 89 - 89) =     34.80600  eV     1   --> A              
     e( 90 - 90) =     35.07386  eV     1   --> A              
     e( 91 - 91) =     35.33624  eV     1   --> A              
     e( 92 - 92) =     35.37838  eV     1   --> A              
     e( 93 - 93) =     35.67184  eV     1   --> A              
     e( 94 - 94) =     36.45485  eV     1   --> A              
     e( 95 - 95) =     36.48642  eV     1   --> A              
     e( 96 - 96) =     36.63840  eV     1   --> A              
     e( 97 - 97) =     36.80706  eV     1   --> A              
     e( 98 - 98) =     37.02010  eV     1   --> A              
     e( 99 - 99) =     37.57023  eV     1   --> A              
     e(100 -100) =     37.94629  eV     1   --> A              

 **************************************************************************

 **************************************************************************

                    xk=(   0.12526,  -0.07232,   0.00000  )

     Band symmetry, C_1 (1)     point group:

     e(  1 -  1) =    -15.33942  eV     1   --> A              
     e(  2 -  2) =    -14.20688  eV     1   --> A              
     e(  3 -  3) =     -6.77025  eV     1   --> A              
     e(  4 -  4) =     -4.24691  eV     1   --> A              
     e(  5 -  5) =     -3.85811  eV     1   --> A              
     e(  6 -  6) =     -3.49410  eV     1   --> A              
     e(  7 -  7) =     -2.92648  eV     1   --> A              
     e(  8 -  8) =     -2.23213  eV     1   --> A              
     e(  9 -  9) =     -1.34941  eV     1   --> A              
     e( 10 - 10) =      1.63456  eV     1   --> A              
     e( 11 - 11) =      1.76250  eV     1   --> A              
     e( 12 - 12) =      2.01471  eV     1   --> A              
     e( 13 - 13) =      2.43564  eV     1   --> A              
     e( 14 - 14) =      4.84460  eV     1   --> A              
     e( 15 - 15) =      5.00516  eV     1   --> A              
     e( 16 - 16) =      5.95766  eV     1   --> A              
     e( 17 - 17) =      6.63176  eV     1   --> A              
     e( 18 - 18) =      7.25911  eV     1   --> A              
     e( 19 - 19) =      8.56259  eV     1   --> A              
     e( 20 - 20) =      9.15485  eV     1   --> A              
     e( 21 - 21) =      9.34309  eV     1   --> A              
     e( 22 - 22) =     10.47110  eV     1   --> A              
     e( 23 - 23) =     10.66701  eV     1   --> A              
     e( 24 - 24) =     11.06154  eV     1   --> A              
     e( 25 - 25) =     12.15840  eV     1   --> A              
     e( 26 - 26) =     12.16744  eV     1   --> A              
     e( 27 - 27) =     12.75377  eV     1   --> A              
     e( 28 - 28) =     14.22020  eV     1   --> A              
     e( 29 - 29) =     15.53189  eV     1   --> A              
     e( 30 - 30) =     15.55147  eV     1   --> A              
     e( 31 - 31) =     15.73946  eV     1   --> A              
     e( 32 - 32) =     16.33981  eV     1   --> A              
     e( 33 - 33) =     16.74191  eV     1   --> A              
     e( 34 - 34) =     17.71400  eV     1   --> A              
     e( 35 - 35) =     19.51313  eV     1   --> A              
     e( 36 - 36) =     20.26872  eV     1   --> A              
     e( 37 - 37) =     20.51552  eV     1   --> A              
     e( 38 - 38) =     21.08197  eV     1   --> A              
     e( 39 - 39) =     21.21894  eV     1   --> A              
     e( 40 - 40) =     21.22783  eV     1   --> A              
     e( 41 - 41) =     21.86450  eV     1   --> A              
     e( 42 - 42) =     22.38623  eV     1   --> A              
     e( 43 - 43) =     22.78570  eV     1   --> A              
     e( 44 - 44) =     22.80219  eV     1   --> A              
     e( 45 - 45) =     22.82377  eV     1   --> A              
     e( 46 - 46) =     23.33825  eV     1   --> A              
     e( 47 - 47) =     23.68423  eV     1   --> A              
     e( 48 - 48) =     24.02276  eV     1   --> A              
     e( 49 - 49) =     24.55303  eV     1   --> A              
     e( 50 - 50) =     24.62135  eV     1   --> A              
     e( 51 - 51) =     24.97037  eV     1   --> A              
     e( 52 - 52) =     25.04850  eV     1   --> A              
     e( 53 - 53) =     25.08858  eV     1   --> A              
     e( 54 - 54) =     26.08114  eV     1   --> A              
     e( 55 - 55) =     26.44981  eV     1   --> A              
     e( 56 - 56) =     26.59137  eV     1   --> A              
     e( 57 - 57) =     27.16138  eV     1   --> A              
     e( 58 - 58) =     27.18660  eV     1   --> A              
     e( 59 - 59) =     27.36390  eV     1   --> A              
     e( 60 - 60) =     27.83440  eV     1   --> A              
     e( 61 - 61) =     27.92127  eV     1   --> A              
     e( 62 - 62) =     28.44714  eV     1   --> A              
     e( 63 - 63) =     28.45156  eV     1   --> A              
     e( 64 - 64) =     28.45834  eV     1   --> A              
     e( 65 - 65) =     28.52897  eV     1   --> A              
     e( 66 - 66) =     29.29458  eV     1   --> A              
     e( 67 - 67) =     29.42631  eV     1   --> A              
     e( 68 - 68) =     29.82054  eV     1   --> A              
     e( 69 - 69) =     29.91147  eV     1   --> A              
     e( 70 - 70) =     29.94346  eV     1   --> A              
     e( 71 - 71) =     30.17801  eV     1   --> A              
     e( 72 - 72) =     30.19009  eV     1   --> A              
     e( 73 - 73) =     30.87630  eV     1   --> A              
     e( 74 - 74) =     30.88887  eV     1   --> A              
     e( 75 - 75) =     31.40474  eV     1   --> A              
     e( 76 - 76) =     31.99608  eV     1   --> A              
     e( 77 - 77) =     32.04603  eV     1   --> A              
     e( 78 - 78) =     32.20682  eV     1   --> A              
     e( 79 - 79) =     32.37151  eV     1   --> A              
     e( 80 - 80) =     32.45444  eV     1   --> A              
     e( 81 - 81) =     32.60102  eV     1   --> A              
     e( 82 - 82) =     32.75667  eV     1   --> A              
     e( 83 - 83) =     32.94526  eV     1   --> A              
     e( 84 - 84) =     33.31407  eV     1   --> A              
     e( 85 - 85) =     33.52591  eV     1   --> A              
     e( 86 - 86) =     34.22024  eV     1   --> A              
     e( 87 - 87) =     34.36208  eV     1   --> A              
     e( 88 - 88) =     34.63578  eV     1   --> A              
     e( 89 - 89) =     34.85581  eV     1   --> A              
     e( 90 - 90) =     35.23125  eV     1   --> A              
     e( 91 - 91) =     35.41886  eV     1   --> A              
     e( 92 - 92) =     35.52180  eV     1   --> A              
     e( 93 - 93) =     35.72169  eV     1   --> A              
     e( 94 - 94) =     36.23500  eV     1   --> A              
     e( 95 - 95) =     36.40181  eV     1   --> A              
     e( 96 - 96) =     36.66143  eV     1   --> A              
     e( 97 - 97) =     36.85738  eV     1   --> A              
     e( 98 - 98) =     37.07742  eV     1   --> A              
     e( 99 - 99) =     37.58459  eV     1   --> A              
     e(100 -100) =     37.82078  eV     1   --> A              

 **************************************************************************

 **************************************************************************

                    xk=(   0.13918,  -0.08035,   0.00000  )

     Band symmetry, C_1 (1)     point group:

     e(  1 -  1) =    -15.28551  eV     1   --> A              
     e(  2 -  2) =    -14.17475  eV     1   --> A              
     e(  3 -  3) =     -6.71889  eV     1   --> A              
     e(  4 -  4) =     -4.34510  eV     1   --> A              
     e(  5 -  5) =     -3.96896  eV     1   --> A              
     e(  6 -  6) =     -3.43873  eV     1   --> A              
     e(  7 -  7) =     -2.99909  eV     1   --> A              
     e(  8 -  8) =     -2.22868  eV     1   --> A              
     e(  9 -  9) =     -1.38501  eV     1   --> A              
     e( 10 - 10) =      1.53547  eV     1   --> A              
     e( 11 - 11) =      1.75422  eV     1   --> A              
     e( 12 - 12) =      1.95868  eV     1   --> A              
     e( 13 - 13) =      2.52017  eV     1   --> A              
     e( 14 - 14) =      4.91998  eV     1   --> A              
     e( 15 - 15) =      5.07859  eV     1   --> A              
     e( 16 - 16) =      6.03607  eV     1   --> A              
     e( 17 - 17) =      6.84037  eV     1   --> A              
     e( 18 - 18) =      7.32582  eV     1   --> A              
     e( 19 - 19) =      8.59657  eV     1   --> A              
     e( 20 - 20) =      9.24237  eV     1   --> A              
     e( 21 - 21) =      9.29129  eV     1   --> A              
     e( 22 - 22) =     10.41350  eV     1   --> A              
     e( 23 - 23) =     10.83731  eV     1   --> A              
     e( 24 - 24) =     11.07026  eV     1   --> A              
     e( 25 - 25) =     12.16314  eV     1   --> A              
     e( 26 - 26) =     12.19006  eV     1   --> A              
     e( 27 - 27) =     12.72837  eV     1   --> A              
     e( 28 - 28) =     14.04905  eV     1   --> A              
     e( 29 - 29) =     15.38511  eV     1   --> A              
     e( 30 - 30) =     15.61088  eV     1   --> A              
     e( 31 - 31) =     15.65933  eV     1   --> A              
     e( 32 - 32) =     16.45903  eV     1   --> A              
     e( 33 - 33) =     16.87938  eV     1   --> A              
     e( 34 - 34) =     18.05635  eV     1   --> A              
     e( 35 - 35) =     19.50709  eV     1   --> A              
     e( 36 - 36) =     19.83526  eV     1   --> A              
     e( 37 - 37) =     20.26038  eV     1   --> A              
     e( 38 - 38) =     20.99702  eV     1   --> A              
     e( 39 - 39) =     21.15244  eV     1   --> A              
     e( 40 - 40) =     21.41840  eV     1   --> A              
     e( 41 - 41) =     21.57039  eV     1   --> A              
     e( 42 - 42) =     22.03047  eV     1   --> A              
     e( 43 - 43) =     22.60784  eV     1   --> A              
     e( 44 - 44) =     22.66602  eV     1   --> A              
     e( 45 - 45) =     22.67314  eV     1   --> A              
     e( 46 - 46) =     23.15316  eV     1   --> A              
     e( 47 - 47) =     23.45515  eV     1   --> A              
     e( 48 - 48) =     23.89422  eV     1   --> A              
     e( 49 - 49) =     24.21874  eV     1   --> A              
     e( 50 - 50) =     24.60965  eV     1   --> A              
     e( 51 - 51) =     24.67435  eV     1   --> A              
     e( 52 - 52) =     24.81225  eV     1   --> A              
     e( 53 - 53) =     24.90193  eV     1   --> A              
     e( 54 - 54) =     25.74292  eV     1   --> A              
     e( 55 - 55) =     26.33095  eV     1   --> A              
     e( 56 - 56) =     26.60108  eV     1   --> A              
     e( 57 - 57) =     26.99915  eV     1   --> A              
     e( 58 - 58) =     27.25977  eV     1   --> A              
     e( 59 - 59) =     27.48565  eV     1   --> A              
     e( 60 - 60) =     27.76852  eV     1   --> A              
     e( 61 - 61) =     27.80523  eV     1   --> A              
     e( 62 - 62) =     28.46155  eV     1   --> A              
     e( 63 - 63) =     28.51199  eV     1   --> A              
     e( 64 - 64) =     28.56938  eV     1   --> A              
     e( 65 - 65) =     28.76595  eV     1   --> A              
     e( 66 - 66) =     29.40725  eV     1   --> A              
     e( 67 - 67) =     29.53941  eV     1   --> A              
     e( 68 - 68) =     29.81812  eV     1   --> A              
     e( 69 - 69) =     30.01532  eV     1   --> A              
     e( 70 - 70) =     30.10810  eV     1   --> A              
     e( 71 - 71) =     30.33644  eV     1   --> A              
     e( 72 - 72) =     30.48716  eV     1   --> A              
     e( 73 - 73) =     30.97000  eV     1   --> A              
     e( 74 - 74) =     31.26156  eV     1   --> A              
     e( 75 - 75) =     31.81713  eV     1   --> A              
     e( 76 - 76) =     31.87552  eV     1   --> A              
     e( 77 - 77) =     32.21469  eV     1   --> A              
     e( 78 - 78) =     32.41086  eV     1   --> A              
     e( 79 - 79) =     32.45393  eV     1   --> A              
     e( 80 - 80) =     32.49098  eV     1   --> A              
     e( 81 - 81) =     32.70871  eV     1   --> A              
     e( 82 - 82) =     32.89226  eV     1   --> A              
     e( 83 - 83) =     33.03469  eV     1   --> A              
     e( 84 - 84) =     33.55337  eV     1   --> A              
     e( 85 - 85) =     33.65753  eV     1   --> A              
     e( 86 - 86) =     34.26074  eV     1   --> A              
     e( 87 - 87) =     34.40630  eV     1   --> A              
     e( 88 - 88) =     34.86092  eV     1   --> A              
     e( 89 - 89) =     34.90909  eV     1   --> A              
     e( 90 - 90) =     35.31419  eV     1   --> A              
     e( 91 - 91) =     35.31943  eV     1   --> A              
     e( 92 - 92) =     35.50231  eV     1   --> A              
     e( 93 - 93) =     36.04078  eV     1   --> A              
     e( 94 - 94) =     36.05870  eV     1   --> A              
     e( 95 - 95) =     36.38509  eV     1   --> A              
     e( 96 - 96) =     36.73022  eV     1   --> A              
     e( 97 - 97) =     36.94547  eV     1   --> A              
     e( 98 - 98) =     37.15741  eV     1   --> A              
     e( 99 - 99) =     37.60436  eV     1   --> A              
     e(100 -100) =     37.67229  eV     1   --> A              

 **************************************************************************

 **************************************************************************

                    xk=(   0.15310,  -0.08839,   0.00000  )

     Band symmetry, C_1 (1)     point group:

     e(  1 -  1) =    -15.22663  eV     1   --> A              
     e(  2 -  2) =    -14.13975  eV     1   --> A              
     e(  3 -  3) =     -6.66561  eV     1   --> A              
     e(  4 -  4) =     -4.44562  eV     1   --> A              
     e(  5 -  5) =     -4.08153  eV     1   --> A              
     e(  6 -  6) =     -3.37876  eV     1   --> A              
     e(  7 -  7) =     -3.07437  eV     1   --> A              
     e(  8 -  8) =     -2.23701  eV     1   --> A              
     e(  9 -  9) =     -1.42872  eV     1   --> A              
     e( 10 - 10) =      1.44456  eV     1   --> A              
     e( 11 - 11) =      1.75834  eV     1   --> A              
     e( 12 - 12) =      1.90148  eV     1   --> A              
     e( 13 - 13) =      2.60700  eV     1   --> A              
     e( 14 - 14) =      5.00056  eV     1   --> A              
     e( 15 - 15) =      5.15877  eV     1   --> A              
     e( 16 - 16) =      6.11793  eV     1   --> A              
     e( 17 - 17) =      7.05263  eV     1   --> A              
     e( 18 - 18) =      7.39741  eV     1   --> A              
     e( 19 - 19) =      8.62850  eV     1   --> A              
     e( 20 - 20) =      9.25755  eV     1   --> A              
     e( 21 - 21) =      9.26273  eV     1   --> A              
     e( 22 - 22) =     10.40342  eV     1   --> A              
     e( 23 - 23) =     11.01860  eV     1   --> A              
     e( 24 - 24) =     11.11259  eV     1   --> A              
     e( 25 - 25) =     12.12904  eV     1   --> A              
     e( 26 - 26) =     12.22125  eV     1   --> A              
     e( 27 - 27) =     12.72459  eV     1   --> A              
     e( 28 - 28) =     13.89134  eV     1   --> A              
     e( 29 - 29) =     15.21163  eV     1   --> A              
     e( 30 - 30) =     15.57782  eV     1   --> A              
     e( 31 - 31) =     15.69983  eV     1   --> A              
     e( 32 - 32) =     16.58233  eV     1   --> A              
     e( 33 - 33) =     17.03019  eV     1   --> A              
     e( 34 - 34) =     18.38875  eV     1   --> A              
     e( 35 - 35) =     19.32143  eV     1   --> A              
     e( 36 - 36) =     19.41653  eV     1   --> A              
     e( 37 - 37) =     20.10129  eV     1   --> A              
     e( 38 - 38) =     20.74327  eV     1   --> A              
     e( 39 - 39) =     21.18553  eV     1   --> A              
     e( 40 - 40) =     21.40118  eV     1   --> A              
     e( 41 - 41) =     21.41188  eV     1   --> A              
     e( 42 - 42) =     21.83225  eV     1   --> A              
     e( 43 - 43) =     22.43876  eV     1   --> A              
     e( 44 - 44) =     22.48674  eV     1   --> A              
     e( 45 - 45) =     22.54497  eV     1   --> A              
     e( 46 - 46) =     23.07566  eV     1   --> A              
     e( 47 - 47) =     23.22165  eV     1   --> A              
     e( 48 - 48) =     23.72220  eV     1   --> A              
     e( 49 - 49) =     23.89640  eV     1   --> A              
     e( 50 - 50) =     24.36617  eV     1   --> A              
     e( 51 - 51) =     24.61319  eV     1   --> A              
     e( 52 - 52) =     24.65776  eV     1   --> A              
     e( 53 - 53) =     24.72173  eV     1   --> A              
     e( 54 - 54) =     25.43872  eV     1   --> A              
     e( 55 - 55) =     26.08458  eV     1   --> A              
     e( 56 - 56) =     26.66894  eV     1   --> A              
     e( 57 - 57) =     26.89513  eV     1   --> A              
     e( 58 - 58) =     27.32642  eV     1   --> A              
     e( 59 - 59) =     27.49752  eV     1   --> A              
     e( 60 - 60) =     27.52172  eV     1   --> A              
     e( 61 - 61) =     27.60286  eV     1   --> A              
     e( 62 - 62) =     28.59290  eV     1   --> A              
     e( 63 - 63) =     28.70523  eV     1   --> A              
     e( 64 - 64) =     28.77481  eV     1   --> A              
     e( 65 - 65) =     28.82144  eV     1   --> A              
     e( 66 - 66) =     29.47442  eV     1   --> A              
     e( 67 - 67) =     29.59577  eV     1   --> A              
[...]
     e(  3 -  3) =     -7.00510  eV     1   --> A              
     e(  4 -  4) =     -3.76727  eV     1   --> A              
     e(  5 -  5) =     -3.72810  eV     1   --> A              
     e(  6 -  6) =     -3.19288  eV     1   --> A              
     e(  7 -  7) =     -2.57539  eV     1   --> A              
     e(  8 -  8) =     -2.50486  eV     1   --> A              
     e(  9 -  9) =     -1.25202  eV     1   --> A              
     e( 10 - 10) =      1.97507  eV     1   --> A              
     e( 11 - 11) =      2.02127  eV     1   --> A              
     e( 12 - 12) =      2.26472  eV     1   --> A              
     e( 13 - 13) =      2.29260  eV     1   --> A              
     e( 14 - 14) =      4.48684  eV     1   --> A              
     e( 15 - 15) =      4.69887  eV     1   --> A              
     e( 16 - 16) =      5.43274  eV     1   --> A              
     e( 17 - 17) =      5.79942  eV     1   --> A              
     e( 18 - 18) =      6.97475  eV     1   --> A              
     e( 19 - 19) =      8.31117  eV     1   --> A              
     e( 20 - 20) =      8.34861  eV     1   --> A              
     e( 21 - 21) =      9.83258  eV     1   --> A              
     e( 22 - 22) =      9.91363  eV     1   --> A              
     e( 23 - 23) =     10.48481  eV     1   --> A              
     e( 24 - 24) =     11.78693  eV     1   --> A              
     e( 25 - 25) =     12.03881  eV     1   --> A              
     e( 26 - 26) =     12.14765  eV     1   --> A              
     e( 27 - 27) =     12.91861  eV     1   --> A              
     e( 28 - 28) =     14.96934  eV     1   --> A              
     e( 29 - 29) =     15.64020  eV     1   --> A              
     e( 30 - 30) =     15.74827  eV     1   --> A              
     e( 31 - 31) =     15.84641  eV     1   --> A              
     e( 32 - 32) =     15.97829  eV     1   --> A              
     e( 33 - 33) =     16.34103  eV     1   --> A              
     e( 34 - 34) =     16.37561  eV     1   --> A              
     e( 35 - 35) =     19.02454  eV     1   --> A              
     e( 36 - 36) =     19.38297  eV     1   --> A              
     e( 37 - 37) =     20.71410  eV     1   --> A              
     e( 38 - 38) =     21.18685  eV     1   --> A              
     e( 39 - 39) =     22.79096  eV     1   --> A              
     e( 40 - 40) =     22.89213  eV     1   --> A              
     e( 41 - 41) =     23.66017  eV     1   --> A              
     e( 42 - 42) =     24.11572  eV     1   --> A              
     e( 43 - 43) =     24.42892  eV     1   --> A              
     e( 44 - 44) =     24.81785  eV     1   --> A              
     e( 45 - 45) =     24.95844  eV     1   --> A              
     e( 46 - 46) =     25.00383  eV     1   --> A              
     e( 47 - 47) =     25.22426  eV     1   --> A              
     e( 48 - 48) =     25.37494  eV     1   --> A              
     e( 49 - 49) =     25.58981  eV     1   --> A              
     e( 50 - 50) =     25.62099  eV     1   --> A              
     e( 51 - 51) =     25.72221  eV     1   --> A              
     e( 52 - 52) =     25.99363  eV     1   --> A              
     e( 53 - 53) =     26.21995  eV     1   --> A              
     e( 54 - 54) =     26.31311  eV     1   --> A              
     e( 55 - 55) =     26.41391  eV     1   --> A              
     e( 56 - 56) =     26.65242  eV     1   --> A              
     e( 57 - 57) =     26.67389  eV     1   --> A              
     e( 58 - 58) =     26.78866  eV     1   --> A              
     e( 59 - 59) =     27.07193  eV     1   --> A              
     e( 60 - 60) =     27.11127  eV     1   --> A              
     e( 61 - 61) =     27.42240  eV     1   --> A              
     e( 62 - 62) =     27.53729  eV     1   --> A              
     e( 63 - 63) =     27.59105  eV     1   --> A              
     e( 64 - 64) =     27.62897  eV     1   --> A              
     e( 65 - 65) =     28.17428  eV     1   --> A              
     e( 66 - 66) =     28.43372  eV     1   --> A              
     e( 67 - 67) =     28.55724  eV     1   --> A              
     e( 68 - 68) =     28.70793  eV     1   --> A              
     e( 69 - 69) =     28.91972  eV     1   --> A              
     e( 70 - 70) =     29.14012  eV     1   --> A              
     e( 71 - 71) =     29.51044  eV     1   --> A              
     e( 72 - 72) =     29.72346  eV     1   --> A              
     e( 73 - 73) =     30.02137  eV     1   --> A              
     e( 74 - 74) =     30.26095  eV     1   --> A              
     e( 75 - 75) =     30.47094  eV     1   --> A              
     e( 76 - 76) =     30.75894  eV     1   --> A              
     e( 77 - 77) =     31.13682  eV     1   --> A              
     e( 78 - 78) =     31.21024  eV     1   --> A              
     e( 79 - 79) =     31.76415  eV     1   --> A              
     e( 80 - 80) =     31.89626  eV     1   --> A              
     e( 81 - 81) =     32.16836  eV     1   --> A              
     e( 82 - 82) =     32.32187  eV     1   --> A              
     e( 83 - 83) =     33.05255  eV     1   --> A              
     e( 84 - 84) =     33.53797  eV     1   --> A              
     e( 85 - 85) =     33.58481  eV     1   --> A              
     e( 86 - 86) =     33.70510  eV     1   --> A              
     e( 87 - 87) =     33.99172  eV     1   --> A              
     e( 88 - 88) =     34.21193  eV     1   --> A              
     e( 89 - 89) =     34.40653  eV     1   --> A              
     e( 90 - 90) =     35.08469  eV     1   --> A              
     e( 91 - 91) =     35.22438  eV     1   --> A              
     e( 92 - 92) =     35.28562  eV     1   --> A              
     e( 93 - 93) =     35.32492  eV     1   --> A              
     e( 94 - 94) =     35.62785  eV     1   --> A              
     e( 95 - 95) =     36.33212  eV     1   --> A              
     e( 96 - 96) =     36.41399  eV     1   --> A              
     e( 97 - 97) =     36.94702  eV     1   --> A              
     e( 98 - 98) =     37.49665  eV     1   --> A              
     e( 99 - 99) =     37.51267  eV     1   --> A              
     e(100 -100) =     37.54573  eV     1   --> A              

 **************************************************************************

 **************************************************************************

                    xk=(   0.00796,  -0.01377,   0.00000  )

     Band symmetry, C_1 (1)     point group:

     e(  1 -  1) =    -15.57304  eV     1   --> A              
     e(  2 -  2) =    -14.34652  eV     1   --> A              
     e(  3 -  3) =     -7.01479  eV     1   --> A              
     e(  4 -  4) =     -3.74614  eV     1   --> A              
     e(  5 -  5) =     -3.73713  eV     1   --> A              
     e(  6 -  6) =     -3.14544  eV     1   --> A              
     e(  7 -  7) =     -2.55968  eV     1   --> A              
     e(  8 -  8) =     -2.53944  eV     1   --> A              
     e(  9 -  9) =     -1.24993  eV     1   --> A              
     e( 10 - 10) =      1.99123  eV     1   --> A              
     e( 11 - 11) =      2.00260  eV     1   --> A              
     e( 12 - 12) =      2.29883  eV     1   --> A              
     e( 13 - 13) =      2.30543  eV     1   --> A              
     e( 14 - 14) =      4.46939  eV     1   --> A              
     e( 15 - 15) =      4.68692  eV     1   --> A              
     e( 16 - 16) =      5.39589  eV     1   --> A              
     e( 17 - 17) =      5.77819  eV     1   --> A              
     e( 18 - 18) =      6.96359  eV     1   --> A              
     e( 19 - 19) =      8.26728  eV     1   --> A              
     e( 20 - 20) =      8.33795  eV     1   --> A              
     e( 21 - 21) =      9.86397  eV     1   --> A              
     e( 22 - 22) =      9.88303  eV     1   --> A              
     e( 23 - 23) =     10.47593  eV     1   --> A              
     e( 24 - 24) =     11.76054  eV     1   --> A              
     e( 25 - 25) =     12.12397  eV     1   --> A              
     e( 26 - 26) =     12.15027  eV     1   --> A              
     e( 27 - 27) =     12.92046  eV     1   --> A              
     e( 28 - 28) =     14.95911  eV     1   --> A              
     e( 29 - 29) =     15.69352  eV     1   --> A              
     e( 30 - 30) =     15.73424  eV     1   --> A              
     e( 31 - 31) =     15.75206  eV     1   --> A              
     e( 32 - 32) =     15.96800  eV     1   --> A              
     e( 33 - 33) =     16.37620  eV     1   --> A              
     e( 34 - 34) =     16.38619  eV     1   --> A              
     e( 35 - 35) =     19.00345  eV     1   --> A              
     e( 36 - 36) =     19.27403  eV     1   --> A              
     e( 37 - 37) =     20.70110  eV     1   --> A              
     e( 38 - 38) =     21.19751  eV     1   --> A              
     e( 39 - 39) =     22.84386  eV     1   --> A              
     e( 40 - 40) =     22.86843  eV     1   --> A              
     e( 41 - 41) =     24.09289  eV     1   --> A              
     e( 42 - 42) =     24.34808  eV     1   --> A              
     e( 43 - 43) =     24.81365  eV     1   --> A              
     e( 44 - 44) =     24.86974  eV     1   --> A              
     e( 45 - 45) =     25.10404  eV     1   --> A              
     e( 46 - 46) =     25.10437  eV     1   --> A              
     e( 47 - 47) =     25.19956  eV     1   --> A              
     e( 48 - 48) =     25.31598  eV     1   --> A              
     e( 49 - 49) =     25.35719  eV     1   --> A              
     e( 50 - 50) =     25.77688  eV     1   --> A              
     e( 51 - 51) =     25.92494  eV     1   --> A              
     e( 52 - 52) =     25.96358  eV     1   --> A              
     e( 53 - 53) =     26.02653  eV     1   --> A              
     e( 54 - 54) =     26.35654  eV     1   --> A              
     e( 55 - 55) =     26.50388  eV     1   --> A              
     e( 56 - 56) =     26.59398  eV     1   --> A              
     e( 57 - 57) =     26.65007  eV     1   --> A              
     e( 58 - 58) =     26.95517  eV     1   --> A              
     e( 59 - 59) =     27.01084  eV     1   --> A              
     e( 60 - 60) =     27.05747  eV     1   --> A              
     e( 61 - 61) =     27.32024  eV     1   --> A              
     e( 62 - 62) =     27.36873  eV     1   --> A              
     e( 63 - 63) =     27.38202  eV     1   --> A              
     e( 64 - 64) =     27.53732  eV     1   --> A              
     e( 65 - 65) =     27.75140  eV     1   --> A              
     e( 66 - 66) =     28.33760  eV     1   --> A              
     e( 67 - 67) =     28.72381  eV     1   --> A              
     e( 68 - 68) =     28.78355  eV     1   --> A              
     e( 69 - 69) =     28.89268  eV     1   --> A              
     e( 70 - 70) =     29.47429  eV     1   --> A              
     e( 71 - 71) =     29.55104  eV     1   --> A              
     e( 72 - 72) =     29.85981  eV     1   --> A              
     e( 73 - 73) =     29.90423  eV     1   --> A              
     e( 74 - 74) =     29.94151  eV     1   --> A              
     e( 75 - 75) =     30.29136  eV     1   --> A              
     e( 76 - 76) =     30.82511  eV     1   --> A              
     e( 77 - 77) =     30.94886  eV     1   --> A              
     e( 78 - 78) =     31.03855  eV     1   --> A              
     e( 79 - 79) =     31.90216  eV     1   --> A              
     e( 80 - 80) =     32.00139  eV     1   --> A              
     e( 81 - 81) =     32.03032  eV     1   --> A              
     e( 82 - 82) =     32.35373  eV     1   --> A              
     e( 83 - 83) =     33.40372  eV     1   --> A              
     e( 84 - 84) =     33.49555  eV     1   --> A              
     e( 85 - 85) =     33.54921  eV     1   --> A              
     e( 86 - 86) =     33.64139  eV     1   --> A              
     e( 87 - 87) =     33.91038  eV     1   --> A              
     e( 88 - 88) =     34.04580  eV     1   --> A              
     e( 89 - 89) =     34.39054  eV     1   --> A              
     e( 90 - 90) =     35.06366  eV     1   --> A              
     e( 91 - 91) =     35.09138  eV     1   --> A              
     e( 92 - 92) =     35.34472  eV     1   --> A              
     e( 93 - 93) =     35.45263  eV     1   --> A              
     e( 94 - 94) =     35.54251  eV     1   --> A              
     e( 95 - 95) =     36.38295  eV     1   --> A              
     e( 96 - 96) =     36.51045  eV     1   --> A              
     e( 97 - 97) =     36.94160  eV     1   --> A              
     e( 98 - 98) =     37.17722  eV     1   --> A              
     e( 99 - 99) =     37.56441  eV     1   --> A              
     e(100 -100) =     37.57364  eV     1   --> A              

 **************************************************************************

 **************************************************************************

                    xk=(   0.00000,   0.00000,   0.00000  )

     Band symmetry, C_1 (1)     point group:

     e(  1 -  1) =    -15.57595  eV     1   --> A              
     e(  2 -  2) =    -14.34826  eV     1   --> A              
     e(  3 -  3) =     -7.01803  eV     1   --> A              
     e(  4 -  4) =     -3.74146  eV     1   --> A              
     e(  5 -  5) =     -3.73771  eV     1   --> A              
     e(  6 -  6) =     -3.12817  eV     1   --> A              
     e(  7 -  7) =     -2.55521  eV     1   --> A              
     e(  8 -  8) =     -2.55166  eV     1   --> A              
     e(  9 -  9) =     -1.24925  eV     1   --> A              
     e( 10 - 10) =      1.99610  eV     1   --> A              
     e( 11 - 11) =      1.99700  eV     1   --> A              
     e( 12 - 12) =      2.30808  eV     1   --> A              
     e( 13 - 13) =      2.31213  eV     1   --> A              
     e( 14 - 14) =      4.46344  eV     1   --> A              
     e( 15 - 15) =      4.68293  eV     1   --> A              
     e( 16 - 16) =      5.38329  eV     1   --> A              
     e( 17 - 17) =      5.77132  eV     1   --> A              
     e( 18 - 18) =      6.95986  eV     1   --> A              
     e( 19 - 19) =      8.25247  eV     1   --> A              
     e( 20 - 20) =      8.33436  eV     1   --> A              
     e( 21 - 21) =      9.87096  eV     1   --> A              
     e( 22 - 22) =      9.87661  eV     1   --> A              
     e( 23 - 23) =     10.47291  eV     1   --> A              
     e( 24 - 24) =     11.75145  eV     1   --> A              
     e( 25 - 25) =     12.14874  eV     1   --> A              
     e( 26 - 26) =     12.15621  eV     1   --> A              
     e( 27 - 27) =     12.92093  eV     1   --> A              
     e( 28 - 28) =     14.95428  eV     1   --> A              
     e( 29 - 29) =     15.69064  eV     1   --> A              
     e( 30 - 30) =     15.73478  eV     1   --> A              
     e( 31 - 31) =     15.73733  eV     1   --> A              
     e( 32 - 32) =     15.96410  eV     1   --> A              
     e( 33 - 33) =     16.38722  eV     1   --> A              
     e( 34 - 34) =     16.39111  eV     1   --> A              
     e( 35 - 35) =     18.99646  eV     1   --> A              
     e( 36 - 36) =     19.23642  eV     1   --> A              
     e( 37 - 37) =     20.69675  eV     1   --> A              
     e( 38 - 38) =     21.20092  eV     1   --> A              
     e( 39 - 39) =     22.85766  eV     1   --> A              
     e( 40 - 40) =     22.86428  eV     1   --> A              
     e( 41 - 41) =     24.42299  eV     1   --> A              
     e( 42 - 42) =     24.43083  eV     1   --> A              
     e( 43 - 43) =     24.62374  eV     1   --> A              
     e( 44 - 44) =     25.08826  eV     1   --> A              
     e( 45 - 45) =     25.16984  eV     1   --> A              
     e( 46 - 46) =     25.22126  eV     1   --> A              
     e( 47 - 47) =     25.22286  eV     1   --> A              
     e( 48 - 48) =     25.22772  eV     1   --> A              
     e( 49 - 49) =     25.22996  eV     1   --> A              
     e( 50 - 50) =     25.76930  eV     1   --> A              
     e( 51 - 51) =     25.94113  eV     1   --> A              
     e( 52 - 52) =     25.94720  eV     1   --> A              
     e( 53 - 53) =     25.95923  eV     1   --> A              
     e( 54 - 54) =     26.43078  eV     1   --> A              
     e( 55 - 55) =     26.47770  eV     1   --> A              
     e( 56 - 56) =     26.48510  eV     1   --> A              
     e( 57 - 57) =     26.92779  eV     1   --> A              
     e( 58 - 58) =     26.96326  eV     1   --> A              
     e( 59 - 59) =     27.07937  eV     1   --> A              
     e( 60 - 60) =     27.08691  eV     1   --> A              
     e( 61 - 61) =     27.19917  eV     1   --> A              
     e( 62 - 62) =     27.22735  eV     1   --> A              
     e( 63 - 63) =     27.23431  eV     1   --> A              
     e( 64 - 64) =     27.57931  eV     1   --> A              
     e( 65 - 65) =     27.58600  eV     1   --> A              
     e( 66 - 66) =     28.14092  eV     1   --> A              
     e( 67 - 67) =     28.80759  eV     1   --> A              
     e( 68 - 68) =     28.93227  eV     1   --> A              
     e( 69 - 69) =     28.93986  eV     1   --> A              
     e( 70 - 70) =     29.43534  eV     1   --> A              
     e( 71 - 71) =     29.77843  eV     1   --> A              
     e( 72 - 72) =     29.78488  eV     1   --> A              
     e( 73 - 73) =     29.94147  eV     1   --> A              
     e( 74 - 74) =     29.96423  eV     1   --> A              
     e( 75 - 75) =     29.97240  eV     1   --> A              
     e( 76 - 76) =     30.86980  eV     1   --> A              
     e( 77 - 77) =     30.87592  eV     1   --> A              
     e( 78 - 78) =     30.99768  eV     1   --> A              
     e( 79 - 79) =     31.78236  eV     1   --> A              
     e( 80 - 80) =     32.08841  eV     1   --> A              
     e( 81 - 81) =     32.09578  eV     1   --> A              
     e( 82 - 82) =     32.39064  eV     1   --> A              
     e( 83 - 83) =     33.44315  eV     1   --> A              
     e( 84 - 84) =     33.44792  eV     1   --> A              
     e( 85 - 85) =     33.67438  eV     1   --> A              
     e( 86 - 86) =     33.68302  eV     1   --> A              
     e( 87 - 87) =     33.82940  eV     1   --> A              
     e( 88 - 88) =     33.90773  eV     1   --> A              
     e( 89 - 89) =     34.38852  eV     1   --> A              
     e( 90 - 90) =     35.05009  eV     1   --> A              
     e( 91 - 91) =     35.05442  eV     1   --> A              
     e( 92 - 92) =     35.34731  eV     1   --> A              
     e( 93 - 93) =     35.51341  eV     1   --> A              
     e( 94 - 94) =     35.51916  eV     1   --> A              
     e( 95 - 95) =     36.36780  eV     1   --> A              
     e( 96 - 96) =     36.68127  eV     1   --> A              
     e( 97 - 97) =     36.94715  eV     1   --> A              
     e( 98 - 98) =     36.94740  eV     1   --> A              
     e( 99 - 99) =     37.58552  eV     1   --> A              
     e(100 -100) =     37.59182  eV     1   --> A              

 **************************************************************************

     BANDS        :     36.90s CPU     47.36s WALL


   This run was terminated on:  23:28: 0  25May2022            

=------------------------------------------------------------------------------=
   JOB DONE.
=------------------------------------------------------------------------------=
