
     Program PWSCF v.6.5Max starts on 23May2022 at 19:50:30 

     This program is part of the open-source Quantum ESPRESSO suite
     for quantum simulation of materials; please cite
         "P. Giannozzi et al., J. Phys.:Condens. Matter 21 395502 (2009);
         "P. Giannozzi et al., J. Phys.:Condens. Matter 29 465901 (2017);
          URL http://www.quantum-espresso.org", 
     in publications or presentations arising from this work. More details at
     http://www.quantum-espresso.org/quote

     Parallel version (MPI), running on    16 processors

     MPI processes distributed on     1 nodes
     R & G space division:  proc/nbgrp/npool/nimage =      16
     Waiting for input...
     Reading input from standard input
Warning: card &IONS ignored
Warning: card  / ignored
Warning: card &CELL ignored
Warning: card CELL_DYNAMICS='BFGS' ignored
Warning: card CELL_FACTOR=2.5 ignored
Warning: card CELL_DOFREE='2DXY' ignored
Warning: card / ignored

     Current dimensions of program PWSCF are:
     Max number of different atomic species (ntypx) = 10
     Max number of k-points (npk) =  40000
     Max angular momentum in pseudopotentials (lmaxx) =  3
               file Mo.pw-mt_fhi.UPF: wavefunction(s)  4f renormalized
               file S.pw-mt_fhi.UPF: wavefunction(s)  4f renormalized

     -------------------------------------------------
     Parameters for Dispersion (Grimme-D2) Correction:
     -------------------------------------------------
       atom      VdW radius       C_6     

        Mo         3.097        855.833
        S          3.180        193.230

     Subspace diagonalization in iterative solution of the eigenvalue problem:
     a serial algorithm will be used

     Message from routine setup:
     no reason to have ecutrho>4*ecutwfc

     Parallelization info
     --------------------
     sticks:   dense  smooth     PW     G-vecs:    dense   smooth      PW
     Min          88      34     11                15714     3948     719
     Max          89      35     12                15731     3981     736
     Sum        1417     559    187               251567    63583   11719



     bravais-lattice index     =            0
     lattice parameter (alat)  =       5.8578  a.u.
     unit-cell volume          =    1012.8512 (a.u.)^3
     number of atoms/cell      =            3
     number of atomic types    =            2
     number of electrons       =        18.00
     number of Kohn-Sham states=          100
     kinetic-energy cutoff     =      60.0000  Ry
     charge density cutoff     =     600.0000  Ry
     convergence threshold     =      1.0E-08
     mixing beta               =       0.7000
     number of iterations used =            8  plain     mixing
     Exchange-correlation= SLA-PW
                           (   1   4   0   0   0   0   0)

     celldm(1)=   5.857840  celldm(2)=   0.000000  celldm(3)=   0.000000
     celldm(4)=   0.000000  celldm(5)=   0.000000  celldm(6)=   0.000000

     crystal axes: (cart. coord. in units of alat)
               a(1) = (   0.998010   0.000148   0.000000 )  
               a(2) = (  -0.498877   0.864376   0.000000 )  
               a(3) = (   0.000000   0.000000   5.840610 )  

     reciprocal axes: (cart. coord. in units 2 pi/alat)
               b(1) = (  1.001908  0.578254 -0.000000 )  
               b(2) = ( -0.000171  1.156805  0.000000 )  
               b(3) = (  0.000000 -0.000000  0.171215 )  


     PseudoPot. # 1 for Mo read from file:
     ./Mo.pw-mt_fhi.UPF
     MD5 check sum: 39557091c5c29ab518dcc42d2770f0a9
     Pseudo is Norm-conserving, Zval =  6.0
     Generated using FHI98PP, converted with fhi2upf.x v.5.0.1
     Using radial grid of  541 points,  3 beta functions with: 
                l(1) =   0
                l(2) =   2
                l(3) =   3

     PseudoPot. # 2 for S  read from file:
     ./S.pw-mt_fhi.UPF
     MD5 check sum: 498597b413bac406373b42162ed9f1a5
     Pseudo is Norm-conserving, Zval =  6.0
     Generated using FHI98PP, converted with fhi2upf.x v.5.0.1
     Using radial grid of  501 points,  3 beta functions with: 
                l(1) =   0
                l(2) =   1
                l(3) =   3

     atomic species   valence    mass     pseudopotential
        Mo             6.00    95.95000     Mo( 1.00)
        S              6.00    32.06500     S ( 1.00)

     No symmetry found



   Cartesian axes

     site n.     atom                  positions (alat units)
         1           Mo  tau(   1) = (   0.4955669   0.2786269   3.5999512  )
         2           S   tau(   2) = (  -0.0034576   0.5667389   4.0985121  )
         3           S   tau(   3) = (  -0.0034576   0.5667389   3.1013879  )

     number of k points=    52
                       cart. coord. in units 2pi/alat
        k(    1) = (   0.0000000   0.0000000   0.0000000), wk =   0.0200000
        k(    2) = (  -0.0000171   0.1156805   0.0000000), wk =   0.0400000
        k(    3) = (  -0.0000343   0.2313609   0.0000000), wk =   0.0400000
        k(    4) = (  -0.0000514   0.3470414   0.0000000), wk =   0.0400000
        k(    5) = (  -0.0000686   0.4627219   0.0000000), wk =   0.0400000
        k(    6) = (   0.0000857  -0.5784023   0.0000000), wk =   0.0200000
        k(    7) = (   0.1001737   0.1735059   0.0000000), wk =   0.0400000
        k(    8) = (   0.1001565   0.2891863   0.0000000), wk =   0.0400000
        k(    9) = (   0.1001394   0.4048668   0.0000000), wk =   0.0400000
        k(   10) = (   0.1001222   0.5205473   0.0000000), wk =   0.0400000
        k(   11) = (   0.1002765  -0.5205769   0.0000000), wk =   0.0400000
        k(   12) = (   0.1002594  -0.4048965   0.0000000), wk =   0.0400000
        k(   13) = (   0.1002422  -0.2892160   0.0000000), wk =   0.0400000
        k(   14) = (   0.1002251  -0.1735355   0.0000000), wk =   0.0400000
        k(   15) = (   0.1002079  -0.0578551   0.0000000), wk =   0.0400000
        k(   16) = (   0.2003473   0.3470117   0.0000000), wk =   0.0400000
        k(   17) = (   0.2003302   0.4626922   0.0000000), wk =   0.0400000
        k(   18) = (   0.2003130   0.5783726   0.0000000), wk =   0.0400000
        k(   19) = (   0.2004673  -0.4627516   0.0000000), wk =   0.0400000
        k(   20) = (   0.2004502  -0.3470711   0.0000000), wk =   0.0400000
        k(   21) = (   0.2004330  -0.2313906   0.0000000), wk =   0.0400000
        k(   22) = (   0.2004159  -0.1157102   0.0000000), wk =   0.0400000
        k(   23) = (   0.3005210   0.5205176   0.0000000), wk =   0.0400000
        k(   24) = (   0.3005039   0.6361980   0.0000000), wk =   0.0400000
        k(   25) = (   0.3006581  -0.4049262   0.0000000), wk =   0.0400000
        k(   26) = (   0.3006410  -0.2892457   0.0000000), wk =   0.0400000
        k(   27) = (   0.3006238  -0.1735652   0.0000000), wk =   0.0400000
        k(   28) = (   0.4006947   0.6940234   0.0000000), wk =   0.0400000
        k(   29) = (   0.4008489  -0.3471008   0.0000000), wk =   0.0400000
        k(   30) = (   0.4008318  -0.2314203   0.0000000), wk =   0.0400000
        k(   31) = (  -0.5008683  -0.8675293   0.0000000), wk =   0.0200000
        k(   32) = (  -0.1001908  -0.0578254   0.0000000), wk =   0.0400000
        k(   33) = (  -0.2003816  -0.1156508   0.0000000), wk =   0.0400000
        k(   34) = (  -0.3005724  -0.1734762   0.0000000), wk =   0.0400000
        k(   35) = (  -0.4007632  -0.2313016   0.0000000), wk =   0.0400000
        k(   36) = (   0.5009540   0.2891270   0.0000000), wk =   0.0200000
        k(   37) = (  -0.2003645  -0.2313312   0.0000000), wk =   0.0400000
        k(   38) = (  -0.3005553  -0.2891566   0.0000000), wk =   0.0400000
        k(   39) = (  -0.4007461  -0.3469820   0.0000000), wk =   0.0400000
        k(   40) = (   0.5009712   0.1734465   0.0000000), wk =   0.0400000
        k(   41) = (   0.4007804   0.1156211   0.0000000), wk =   0.0400000
        k(   42) = (   0.3005895   0.0577957   0.0000000), wk =   0.0400000
        k(   43) = (   0.2003987  -0.0000297   0.0000000), wk =   0.0400000
        k(   44) = (  -0.3005381  -0.4048371   0.0000000), wk =   0.0400000
        k(   45) = (  -0.4007289  -0.4626625   0.0000000), wk =   0.0400000
        k(   46) = (   0.5009883   0.0577660   0.0000000), wk =   0.0400000
        k(   47) = (   0.4007975  -0.0000594   0.0000000), wk =   0.0400000
        k(   48) = (   0.3006067  -0.0578848   0.0000000), wk =   0.0400000
        k(   49) = (  -0.4007118  -0.5783430   0.0000000), wk =   0.0400000
        k(   50) = (   0.5010054  -0.0579144   0.0000000), wk =   0.0400000
        k(   51) = (   0.4008146  -0.1157398   0.0000000), wk =   0.0400000
        k(   52) = (   0.5010226  -0.1735949   0.0000000), wk =   0.0400000

     Dense  grid:   251567 G-vectors     FFT dimensions: (  45,  45, 270)

     Smooth grid:    63583 G-vectors     FFT dimensions: (  30,  30, 180)

     Estimated max dynamical RAM per process >      64.57 MB

     Estimated total dynamical RAM >       1.01 GB

     Initial potential from superposition of free atoms

     starting charge   17.99831, renormalised to   18.00000

     negative rho (up, down):  1.661E-03 0.000E+00
     Starting wfcs are   48 randomized atomic wfcs +   52 random wfcs

     total cpu time spent up to now is        8.4 secs

     Self-consistent Calculation

     iteration #  1     ecut=    60.00 Ry     beta= 0.70
     Davidson diagonalization with overlap
     ethr =  1.00E-02,  avg # of iterations =  5.4

     negative rho (up, down):  4.658E-04 0.000E+00

     total cpu time spent up to now is       95.8 secs

     total energy              =     -56.67786025 Ry
     Harris-Foulkes estimate   =     -57.76484375 Ry
     estimated scf accuracy    <       1.31683864 Ry

     iteration #  2     ecut=    60.00 Ry     beta= 0.70
     Davidson diagonalization with overlap
     ethr =  7.32E-03,  avg # of iterations =  3.6

     total cpu time spent up to now is      125.6 secs

     total energy              =     -55.14680701 Ry
     Harris-Foulkes estimate   =     -59.65832675 Ry
     estimated scf accuracy    <      18.41637006 Ry

     iteration #  3     ecut=    60.00 Ry     beta= 0.70
     Davidson diagonalization with overlap
     ethr =  7.32E-03,  avg # of iterations =  2.9

     total cpu time spent up to now is      154.7 secs

     total energy              =     -57.55767589 Ry
     Harris-Foulkes estimate   =     -57.63029950 Ry
     estimated scf accuracy    <       0.17982161 Ry

     iteration #  4     ecut=    60.00 Ry     beta= 0.70
     Davidson diagonalization with overlap
     ethr =  9.99E-04,  avg # of iterations =  2.7

     total cpu time spent up to now is      179.9 secs

     total energy              =     -57.56329134 Ry
     Harris-Foulkes estimate   =     -57.57337034 Ry
     estimated scf accuracy    <       0.03006144 Ry

     iteration #  5     ecut=    60.00 Ry     beta= 0.70
     Davidson diagonalization with overlap
     ethr =  1.67E-04,  avg # of iterations =  3.8

     total cpu time spent up to now is      209.3 secs

     total energy              =     -57.55769228 Ry
     Harris-Foulkes estimate   =     -57.56372747 Ry
     estimated scf accuracy    <       0.01317997 Ry

     iteration #  6     ecut=    60.00 Ry     beta= 0.70
     Davidson diagonalization with overlap
     ethr =  7.32E-05,  avg # of iterations =  3.6

     total cpu time spent up to now is      238.4 secs

     total energy              =     -57.55759435 Ry
     Harris-Foulkes estimate   =     -57.55880802 Ry
     estimated scf accuracy    <       0.00536138 Ry

     iteration #  7     ecut=    60.00 Ry     beta= 0.70
     Davidson diagonalization with overlap
     ethr =  2.98E-05,  avg # of iterations =  2.1

     total cpu time spent up to now is      260.9 secs

     total energy              =     -57.55757459 Ry
     Harris-Foulkes estimate   =     -57.55804175 Ry
     estimated scf accuracy    <       0.00124879 Ry

     iteration #  8     ecut=    60.00 Ry     beta= 0.70
     Davidson diagonalization with overlap
     ethr =  6.94E-06,  avg # of iterations =  3.4

     total cpu time spent up to now is      288.7 secs

     total energy              =     -57.55768412 Ry
     Harris-Foulkes estimate   =     -57.55767632 Ry
     estimated scf accuracy    <       0.00004184 Ry

     iteration #  9     ecut=    60.00 Ry     beta= 0.70
     Davidson diagonalization with overlap
     ethr =  2.32E-07,  avg # of iterations =  3.4

     negative rho (up, down):  2.719E-05 0.000E+00

     total cpu time spent up to now is      325.4 secs

     total energy              =     -57.55769008 Ry
     Harris-Foulkes estimate   =     -57.55768916 Ry
     estimated scf accuracy    <       0.00000020 Ry

     iteration # 10     ecut=    60.00 Ry     beta= 0.70
     Davidson diagonalization with overlap
     ethr =  1.09E-09,  avg # of iterations =  2.9

     total cpu time spent up to now is      357.5 secs

     total energy              =     -57.55769002 Ry
     Harris-Foulkes estimate   =     -57.55769013 Ry
     estimated scf accuracy    <       0.00000002 Ry

     iteration # 11     ecut=    60.00 Ry     beta= 0.70
     Davidson diagonalization with overlap
     ethr =  1.26E-10,  avg # of iterations =  2.7

     total cpu time spent up to now is      385.8 secs

     End of self-consistent calculation

          k = 0.0000 0.0000 0.0000 (  7927 PWs)   bands (ev):

   -15.5763 -14.3486  -7.0183  -3.7418  -3.7380  -3.1284  -2.5555  -2.5520
    -1.2495   1.9958   1.9967   2.3078   2.3118   4.4559   4.6799   5.3711
     5.7483   6.9442   8.2520   8.3178   9.8707   9.8763  10.4563  11.7413
    12.1485  12.1559  12.9166  14.9426  15.6868  15.7345  15.7370  15.9543
    16.3869  16.3908  18.9909  19.2359  20.6832  21.1932  22.8574  22.8640
    24.4223  24.4302  24.6226  25.0831  25.1638  25.2178  25.2195  25.2249
    25.2260  25.7656  25.9167  25.9230  25.9377  26.3952  26.4423  26.4497
    26.9017  26.9503  27.0671  27.0747  27.1866  27.2055  27.2125  27.5645
    27.5712  28.1247  28.7909  28.9160  28.9236  29.4192  29.7640  29.7704
    29.9255  29.9482  29.9563  30.8534  30.8595  30.9862  31.7657  32.0762
    32.0836  32.3766  33.4298  33.4345  33.6615  33.6701  33.8150  33.8945
    34.3746  35.0361  35.0404  35.3376  35.5029  35.5087  36.3541  36.6684
    36.9407  36.9410  37.5734  37.5797

          k =-0.0000 0.1157 0.0000 (  7961 PWs)   bands (ev):

   -15.4238 -14.2573  -6.8548  -4.0844  -3.6654  -3.5787  -2.8030  -2.2694
    -1.3038   1.8032   1.8204   2.1122   2.2937   4.7139   4.8878   5.7917
     6.2861   7.1382   8.4816   8.9113   9.4638  10.3974  10.5389  11.1876
    12.0721  12.1496  12.8173  14.5382  15.4099  15.8288  15.8651  16.1430
    16.5283  17.1106  19.3609  20.6445  20.8919  20.8947  21.2098  21.6818
    22.4677  23.0131  23.0454  23.1166  23.1312  23.8511  24.0759  24.1443
    24.8378  25.0523  25.4263  25.4637  25.5930  26.1760  26.6866  26.9764
    27.0463  27.0485  27.2535  27.4837  27.8745  28.0008  28.4556  28.5914
    28.7213  28.9173  29.0271  29.0458  29.6421  29.6946  30.0392  30.2032
    30.4126  30.8460  30.8825  31.4531  31.5510  31.7041  32.0770  32.1475
    32.5000  32.8064  33.0161  33.4537  33.4830  33.7259  34.3776  34.4516
    34.6570  34.9273  35.2245  35.2518  35.7247  36.5621  36.5987  36.6160
    36.7752  36.9995  37.5719  37.6669

          k =-0.0000 0.2314 0.0000 (  7941 PWs)   bands (ev):

   -14.9935 -14.0022  -6.4918  -4.7809  -4.4766  -3.3362  -3.1438  -2.3432
    -1.6406   1.2246   1.7139   1.8696   2.9036   5.3028   5.4733   6.3937
     7.6367   7.6394   8.7946   8.9104   9.2833  10.7405  11.3481  11.6848
    11.8236  12.4080  12.7929  13.5352  14.6075  15.3160  16.0456  17.0083
    17.5753  17.8750  18.0033  19.0403  19.5559  20.1009  20.5112  21.3888
    21.4312  21.6996  21.8131  21.8908  21.9385  22.5944  23.0213  23.0725
    23.2600  23.4980  24.0711  24.1623  24.6387  24.7748  25.6265  26.0343
    26.4899  26.6119  27.1453  27.5067  27.5643  28.3084  28.5095  28.9773
    29.4321  29.9601  30.1670  30.4360  30.8870  30.9403  30.9959  31.3059
    31.3507  31.6011  31.6979  31.7206  32.1495  32.9881  33.1501  33.5446
    33.6165  33.6428  33.8557  34.2004  34.3831  34.6090  34.9773  35.1520
    35.1950  35.5080  35.7983  35.8400  36.3518  36.6812  37.0494  37.1184
    37.4028  37.4191  37.6665  38.6346

          k =-0.0001 0.3470 0.0000 (  7924 PWs)   bands (ev):

   -14.3790 -13.6458  -6.4959  -5.3280  -5.1631  -3.8536  -2.7297  -2.5895
    -2.1549   1.2787   1.4468   2.4293   3.4174   6.0706   6.2353   7.1162
     7.5539   7.5876   8.8421   8.9421  10.3238  10.8375  11.7945  12.1997
    12.2532  12.7646  13.2430  14.2185  14.3528  14.9797  15.2169  15.4002
    16.2079  16.9119  17.4905  17.6764  18.4958  19.2745  19.5383  20.3859
    20.5644  21.0683  21.2300  21.6910  21.7904  21.8139  22.5665  22.6934
    22.7704  23.3557  23.3890  23.6439  23.8472  24.4362  24.9172  25.4563
    25.6275  26.0077  26.3975  27.1222  27.3833  27.8877  28.5753  28.8563
    28.9122  29.1574  29.2400  29.9216  30.6197  31.2808  31.2839  31.6472
    31.8645  31.8853  32.8211  32.8257  33.4831  33.6448  33.9921  34.0069
    34.5449  34.7826  34.8186  35.2684  35.4334  35.7777  36.0402  36.3246
    36.6205  36.6536  37.2701  37.3248  37.6801  38.0177  38.5760  38.5881
    39.1053  39.2228  39.6798  39.9646

          k =-0.0001 0.4627 0.0000 (  7970 PWs)   bands (ev):

   -13.7778 -13.3115  -7.0062  -6.0377  -5.2869  -4.2034  -3.0042  -2.1623
    -2.1162   1.4709   1.7354   2.9099   3.6888   5.9760   6.5660   6.9124
     7.9205   8.3955   9.2701   9.4509  10.2945  10.6089  11.0066  12.1415
    12.5330  12.5983  13.2936  13.6458  14.5101  14.8764  15.0581  15.9217
    16.1322  16.2876  17.1523  17.7019  17.7579  18.7160  19.0882  19.4660
    19.6279  20.6013  20.8361  20.9346  21.0910  21.4827  21.5154  22.1135
    22.6691  22.9846  22.9981  23.4885  24.1560  24.6546  24.6882  24.9496
    25.7770  26.0543  26.0622  26.3528  26.8882  27.0222  27.2630  27.9343
    28.0989  29.6558  29.6704  29.9469  30.5072  30.6354  30.9468  31.5479
    31.9923  32.2941  32.9993  33.4959  33.9701  34.2909  35.0910  35.2213
    35.2654  35.9880  36.2429  36.3990  36.7903  37.4653  37.6434  37.7903
    38.1244  38.3254  38.4484  38.6768  38.9903  39.2151  39.2855  39.5912
    39.6551  40.8895  41.0084  41.0645

          k = 0.0001-0.5784 0.0000 (  7952 PWs)   bands (ev):

   -13.5097 -13.1688  -7.2795  -6.3221  -5.3950  -4.3254  -3.0886  -2.0169
    -1.8980   1.5670   2.0749   3.0346   3.7650   5.1736   6.7474   7.3571
     8.2534   8.7536   9.5881  10.0696  10.2832  10.4150  10.9064  11.2084
    11.5700  11.8564  13.2682  13.8181  14.1304  14.9988  15.2971  16.6858
    16.6967  16.8080  17.2867  17.5747  17.6326  18.8009  19.2580  19.3200
    19.6838  20.0402  20.2574  20.6458  20.8962  21.0133  21.1893  21.7092
    22.5422  22.6741  22.8478  22.8894  24.1361  24.1803  24.4399  24.4865
    25.3476  25.6161  25.8843  26.3686  26.9415  26.9721  27.1606  28.1393
    28.9347  29.4726  29.5700  30.1877  30.9027  31.0467  31.2053  31.6826
    32.1038  32.5869  32.7440  33.0837  33.8184  34.2034  34.6626  34.7991
    35.0253  36.6731  37.1468  37.3511  37.6100  37.8871  37.9327  38.9244
    39.0629  39.2674  39.3947  39.6021  39.7236  41.0876  41.1609  41.2119
    41.2910  41.4996  41.6104  41.7249

          k = 0.1002 0.1735 0.0000 (  7945 PWs)   bands (ev):

   -15.1320 -14.0838  -6.5821  -4.5822  -4.1733  -3.4089  -3.3080  -2.0827
    -1.4996   1.3219   1.6513   1.7874   2.8209   5.1338   5.2906   6.2358
     7.4581   7.5056   8.6642   9.2069   9.3988  10.2552  11.0276  11.2018
    11.9628  12.2581  12.7784  14.2407  14.4101  15.7788  15.9092  16.4545
    17.3184  18.9198  19.4035  19.5210  19.7744  19.9070  20.4570  20.8026
    21.1535  21.4020  21.6630  21.9772  22.1210  22.7017  22.8176  23.5621
    24.0449  24.4384  24.6027  25.1659  25.7903  26.0175  26.2608  26.3139
    26.8320  26.8981  27.3513  27.4423  27.4904  27.8348  27.9982  28.0769
    28.7026  29.1149  29.9288  30.0248  30.2646  30.5371  30.5616  31.0482
    31.4091  31.5534  32.1698  32.2634  32.3825  32.6533  32.7583  33.1987
    33.4803  33.4841  33.7998  33.9120  34.0197  34.3379  34.4335  34.6490
    34.8175  34.8513  35.6246  36.0431  36.2272  36.2417  36.7404  36.8186
    37.3736  37.7329  38.1802  38.2297

          k = 0.1002 0.2892 0.0000 (  7922 PWs)   bands (ev):

   -14.6063 -13.7747  -6.3591  -5.0401  -4.8848  -4.0962  -3.0068  -2.2432
    -1.9153   1.0020   1.6133   1.8916   3.4321   5.8570   6.0201   6.9718
     7.9833   8.0831   8.7473   9.0668   9.7698  10.7054  11.2744  11.7473
    11.9913  12.4239  12.6213  14.0948  14.3781  15.7326  16.1632  16.6398
    16.7255  17.5029  17.7071  18.4102  18.7090  18.7639  18.9507  19.5775
    20.3750  20.6669  21.1941  21.7492  21.7681  22.2084  22.4030  22.9195
    23.2159  23.5989  24.2369  24.4568  24.8258  25.2140  25.3456  25.9266
    26.0183  26.5512  27.2118  27.5780  27.6064  28.3706  28.4608  28.8373
    29.0609  29.0977  29.5258  29.7490  29.9007  30.1846  30.8758  31.0788
    31.2315  31.6798  32.2389  32.5709  32.5961  33.2280  33.3661  33.8429
    34.2655  34.4670  34.6890  35.1760  35.4014  35.7705  35.8728  35.9770
    36.0904  36.7450  37.0003  37.3253  37.3424  37.9048  38.0916  38.1629
    38.3283  38.9683  39.1346  39.3358

          k = 0.1001 0.4049 0.0000 (  7940 PWs)   bands (ev):

   -13.9853 -13.4188  -6.6784  -5.7517  -5.1190  -4.3584  -2.9922  -2.6815
    -1.9175   1.1759   1.7787   2.4736   3.7024   6.5727   6.7640   7.0777
     7.9506   7.9829   9.3172   9.3218  10.3155  10.6884  10.9060  12.1890
    12.3791  12.9925  13.4745  13.8977  14.3132  14.9472  14.9827  15.6112
    16.1255  16.4298  17.3519  17.4177  17.9788  18.0324  18.7052  18.9082
    19.5817  19.9372  20.2740  20.6298  21.7048  21.7553  22.4336  22.5736
    22.9309  23.7185  24.1368  24.3901  24.4108  24.8860  25.0473  25.5890
    25.6219  25.9894  26.2376  26.5734  26.9662  27.6674  28.3431  28.5613
    29.1173  29.1877  29.6064  29.7473  30.3588  30.4570  31.0393  31.6614
    31.9120  32.5362  32.6876  32.8810  33.2641  33.5348  33.6990  34.2847
    34.4802  35.1140  35.1328  35.8772  36.1056  36.5623  36.8440  37.3057
    37.8656  38.0787  38.0837  38.5542  38.7080  39.2728  39.4025  39.5969
    39.7325  40.0287  40.8298  40.9247

          k = 0.1001 0.5205 0.0000 (  7974 PWs)   bands (ev):

   -13.5270 -13.1659  -7.0709  -6.3196  -5.3027  -4.4045  -3.0134  -2.8693
    -1.6337   1.5107   2.0925   3.0162   3.5078   5.5432   7.3844   7.5966
     8.3483   9.1040   9.3494   9.6260   9.9588  10.8652  10.9138  11.4592
    12.1534  12.4370  13.3535  13.4294  14.3724  14.5944  15.1303  15.5934
    15.9058  16.7909  17.2084  17.3184  17.8379  18.0282  18.1833  18.4127
    19.5822  19.8291  20.2806  20.3875  20.6247  20.8656  21.7952  22.0802
    22.7438  23.4131  23.7450  23.8395  24.1198  24.6621  24.8849  25.1184
    25.7418  25.8179  26.2251  26.5432  26.8491  27.6720  28.1152  28.3768
    28.8467  28.9746  29.3212  30.0796  30.1629  30.9468  31.3550  31.7771
    32.2364  32.4504  32.7413  33.5323  33.9846  34.6850  35.0697  35.0802
    35.1626  35.7810  36.3634  36.5601  36.8585  37.5325  37.5894  37.9967
    38.2609  38.6063  38.7758  39.2471  39.4251  39.5647  39.6835  40.5602
    40.6363  40.9880  41.1691  41.4741

          k = 0.1003-0.5206 0.0000 (  7974 PWs)   bands (ev):

   -13.5268 -13.1657  -7.0712  -6.3199  -5.3026  -4.4046  -3.0131  -2.8687
    -1.6345   1.5101   2.0949   3.0159   3.5078   5.5424   7.3844   7.5969
     8.3481   9.1040   9.3499   9.6261   9.9588  10.8658  10.9139  11.4582
    12.1529  12.4360  13.3525  13.4294  14.3727  14.5929  15.1311  15.5912
    15.9036  16.7912  17.2093  17.3193  17.8397  18.0303  18.1839  18.4140
    19.5821  19.8297  20.2831  20.3871  20.6255  20.8661  21.7967  22.0805
    22.7439  23.4127  23.7447  23.8410  24.1195  24.6619  24.8838  25.1173
    25.7406  25.8170  26.2252  26.5435  26.8462  27.6720  28.1147  28.3761
    28.8465  28.9718  29.3217  30.0786  30.1645  30.9476  31.3536  31.7769
    32.2382  32.4493  32.7414  33.5344  33.9821  34.6857  35.0693  35.0794
    35.1575  35.7742  36.3595  36.5526  36.8521  37.5272  37.5826  38.0003
    38.2520  38.6014  38.7784  39.2481  39.4267  39.5669  39.6841  40.5622
    40.6386  40.9967  41.1714  41.4703

          k = 0.1003-0.4049 0.0000 (  7940 PWs)   bands (ev):

   -13.9849 -13.4184  -6.6791  -5.7525  -5.1192  -4.3584  -2.9908  -2.6810
    -1.9189   1.1752   1.7817   2.4723   3.7031   6.5727   6.7640   7.0770
     7.9500   7.9835   9.3171   9.3218  10.3173  10.6879  10.9056  12.1882
    12.3776  12.9905  13.4740  13.8960  14.3123  14.9456  14.9851  15.6131
    16.1249  16.4296  17.3529  17.4190  17.9810  18.0329  18.7075  18.9096
    19.5823  19.9377  20.2758  20.6310  21.7068  21.7547  22.4336  22.5738
    22.9296  23.7177  24.1390  24.3887  24.4102  24.8851  25.0486  25.5903
    25.6247  25.9893  26.2363  26.5728  26.9652  27.6669  28.3436  28.5591
    29.1164  29.1843  29.6072  29.7443  30.3552  30.4544  31.0382  31.6545
    31.9065  32.5366  32.6808  32.8752  33.2540  33.5345  33.6967  34.2788
    34.4702  35.1136  35.1341  35.8779  36.1041  36.5610  36.8387  37.3030
    37.8659  38.0757  38.0856  38.5617  38.7152  39.2801  39.4069  39.6026
    39.7324  40.0319  40.8383  40.9269

          k = 0.1002-0.2892 0.0000 (  7925 PWs)   bands (ev):

   -14.6059 -13.7742  -6.3591  -5.0405  -4.8855  -4.0961  -3.0063  -2.2430
    -1.9158   1.0015   1.6147   1.8895   3.4336   5.8574   6.0203   6.9722
     7.9830   8.0820   8.7466   9.0663   9.7700  10.7042  11.2729  11.7475
    11.9947  12.4238  12.6219  14.0961  14.3800  15.7313  16.1624  16.6379
    16.7251  17.5040  17.7053  18.4133  18.7097  18.7657  18.9516  19.5814
    20.3742  20.6700  21.1962  21.7501  21.7675  22.2097  22.4022  22.9212
    23.2159  23.5996  24.2382  24.4578  24.8219  25.2135  25.3425  25.9235
    26.0168  26.5507  27.2101  27.5743  27.6040  28.3737  28.4600  28.8342
    29.0547  29.0949  29.5239  29.7486  29.8926  30.1836  30.8732  31.0717
    31.2251  31.6775  32.2373  32.5647  32.5938  33.2251  33.3584  33.8458
    34.2628  34.4745  34.6845  35.1745  35.4020  35.7740  35.8730  35.9848
    36.0963  36.7520  37.0059  37.3244  37.3457  37.9017  38.0958  38.1640
    38.3287  38.9733  39.1346  39.3380

          k = 0.1002-0.1735 0.0000 (  7945 PWs)   bands (ev):

   -15.1318 -14.0835  -6.5819  -4.5812  -4.1726  -3.4104  -3.3097  -2.0824
    -1.4989   1.3226   1.6495   1.7865   2.8219   5.1340   5.2909   6.2360
     7.4587   7.5059   8.6634   9.2075   9.3991  10.2551  11.0259  11.2026
    11.9620  12.2587  12.7798  14.2388  14.4127  15.7787  15.9079  16.4534
    17.3192  18.9233  19.4050  19.5235  19.7766  19.9092  20.4594  20.8041
    21.1551  21.4030  21.6652  21.9768  22.1235  22.7021  22.8191  23.5620
    24.0469  24.4397  24.5991  25.1640  25.7824  26.0115  26.2573  26.3047
    26.8320  26.8901  27.3521  27.4361  27.4901  27.8282  27.9911  28.0750
    28.7032  29.1087  29.9252  30.0230  30.2630  30.5342  30.5623  31.0469
    31.4095  31.5538  32.1662  32.2689  32.3888  32.6581  32.7628  33.2058
    33.4835  33.4860  33.8019  33.9162  34.0208  34.3366  34.4389  34.6437
    34.8180  34.8481  35.6284  36.0443  36.2290  36.2455  36.7373  36.8193
    37.3731  37.7339  38.1831  38.2316

          k = 0.1002-0.0579 0.0000 (  7961 PWs)   bands (ev):

   -15.4237 -14.2572  -6.8547  -4.0821  -3.6643  -3.5814  -2.8059  -2.2679
    -1.3035   1.8032   1.8232   2.1091   2.2932   4.7140   4.8879   5.7918
     6.2865   7.1383   8.4815   8.9117   9.4663  10.3936  10.5399  11.1905
    12.0727  12.1443  12.8183  14.5378  15.4103  15.8258  15.8676  16.1411
    16.5296  17.1135  19.3617  20.6463  20.8930  20.8956  21.2151  21.6873
    22.4740  23.0075  23.0480  23.1184  23.1251  23.8522  24.0725  24.1388
    24.8328  25.0501  25.4204  25.4605  25.5983  26.1776  26.6901  26.9718
    27.0408  27.0482  27.2509  27.4827  27.8727  27.9966  28.4564  28.5857
    28.7222  28.9180  29.0225  29.0488  29.6378  29.7012  30.0420  30.1987
    30.4190  30.8476  30.8851  31.4579  31.5598  31.6999  32.0708  32.1458
    32.4994  32.8091  33.0129  33.4508  33.4869  33.7317  34.3796  34.4504
    34.6607  34.9218  35.2280  35.2530  35.7201  36.5613  36.5994  36.6147
    36.7739  36.9972  37.5656  37.6743

          k = 0.2003 0.3470 0.0000 (  7913 PWs)   bands (ev):

   -14.0647 -13.4577  -6.4804  -5.5494  -4.9236  -4.6202  -3.5292  -2.3824
    -1.8938   0.9933   1.8571   2.0437   3.8770   6.6382   6.8418   7.6633
     7.9089   8.3606   9.1494   9.4640  10.3257  10.6628  10.8186  11.5524
    11.9573  12.8729  13.2118  13.8762  14.8546  15.5647  15.8122  15.8777
    16.2310  16.2896  16.8471  17.0337  17.0979  17.9041  18.2400  19.1191
    19.4758  19.6724  20.3345  20.8974  21.5771  21.6095  22.1563  22.7121
    22.9940  23.7213  23.8421  24.4961  24.8012  25.0740  25.4032  26.0826
    26.5808  26.6102  27.4031  27.7702  27.8304  28.3500  28.5855  28.8681
    29.0965  29.1825  29.5826  29.7748  30.1726  30.4552  30.5542  30.8544
    31.1206  31.5747  31.9363  32.2592  32.4792  33.2905  33.6481  33.7693
    34.1489  34.7142  35.2628  35.4060  36.2612  36.4868  36.6633  37.0684
    37.1726  37.8860  37.8936  38.2376  38.5753  39.3521  39.6139  39.9000
    40.2665  40.3563  40.5948  41.0901

          k = 0.2003 0.4627 0.0000 (  7957 PWs)   bands (ev):

   -13.5542 -13.1610  -6.6646  -6.3087  -4.9789  -4.5574  -4.0038  -2.8407
    -1.6267   1.3312   2.1836   2.3159   4.0573   6.3638   7.5749   7.6834
     8.6194   8.9003   9.3517   9.9911  10.5545  11.0580  11.1599  12.2276
    12.2938  13.0593  13.1522  13.6578  13.7821  14.2186  14.3552  14.7877
    15.5626  15.7762  16.1752  16.6624  17.3153  17.4447  18.1078  18.1209
    18.9861  19.3012  20.3231  20.6499  21.1178  21.2129  21.7472  22.1905
    22.8386  23.1582  23.4337  24.1071  24.8395  25.2520  25.3631  25.9805
    26.4089  27.0195  27.1150  27.7920  28.0085  28.1155  28.6723  29.0932
    29.3277  29.4150  30.0585  30.1682  30.6473  31.1356  31.4087  31.7507
    31.9888  32.1266  32.5004  32.8864  32.9778  33.4925  33.7780  34.1080
    34.3168  35.2728  35.5436  35.6722  35.9997  36.8854  37.1145  37.6700
    37.7461  38.1082  38.3435  38.5516  38.8524  39.3384  39.7421  39.9362
    40.0539  40.4338  40.8153  41.1757

          k = 0.2003 0.5784 0.0000 (  7968 PWs)   bands (ev):

   -13.3353 -13.0345  -6.7139  -6.6096  -5.2491  -4.4346  -4.0192  -3.1178
    -1.3706   1.2841   2.4244   2.5500   4.0846   5.6712   7.8381   8.3717
     8.8777   9.1779  10.0043  10.2459  10.8148  11.0381  11.3682  11.7241
    12.1737  12.3399  12.8576  13.5207  13.6482  14.2098  14.5842  14.9880
    15.1663  15.4859  15.6527  15.8239  17.2449  17.7095  18.1910  18.2468
    18.2500  19.0999  19.3770  20.6357  20.8512  21.4547  21.4788  22.2403
    22.5733  23.3501  23.7257  24.1629  24.9387  25.1372  25.5815  26.1836
    26.7008  26.7069  27.0860  27.4795  27.8625  27.9475  28.1811  28.8393
    29.1279  29.6585  30.0606  30.4414  30.6614  31.0888  31.2849  31.5254
    32.5665  33.0850  33.5830  33.6852  34.0430  34.1092  34.8910  35.0110
    35.4798  35.7815  35.8507  36.1410  36.3437  36.7170  36.8147  37.1805
    37.5162  37.8794  37.9509  38.1903  38.3355  38.8388  39.1609  39.5426
    39.7479  39.8206  40.4172  40.6017

          k = 0.2005-0.4628 0.0000 (  7957 PWs)   bands (ev):

   -13.5536 -13.1604  -6.6657  -6.3096  -4.9789  -4.5578  -4.0025  -2.8401
    -1.6283   1.3313   2.1875   2.3155   4.0565   6.3624   7.5756   7.6831
     8.6206   8.8991   9.3531   9.9917  10.5529  11.0581  11.1602  12.2279
    12.2917  13.0584  13.1495  13.6582  13.7814  14.2160  14.3558  14.7885
    15.5629  15.7772  16.1756  16.6618  17.3156  17.4465  18.1084  18.1228
    18.9892  19.3006  20.3244  20.6519  21.1196  21.2147  21.7467  22.1931
    22.8407  23.1588  23.4334  24.1071  24.8381  25.2513  25.3617  25.9820
    26.4074  27.0184  27.1148  27.7902  28.0073  28.1140  28.6699  29.0895
    29.3269  29.4124  30.0564  30.1687  30.6472  31.1313  31.4080  31.7422
    31.9811  32.1245  32.4947  32.8826  32.9769  33.4849  33.7770  34.1018
    34.3153  35.2747  35.5401  35.6710  35.9948  36.8843  37.1077  37.6718
    37.7422  38.1076  38.3482  38.5567  38.8542  39.3404  39.7393  39.9433
    40.0558  40.4404  40.8187  41.1850

          k = 0.2005-0.3471 0.0000 (  7915 PWs)   bands (ev):

   -14.0639 -13.4568  -6.4812  -5.5506  -4.9238  -4.6206  -3.5277  -2.3819
    -1.8953   0.9929   1.8600   2.0420   3.8774   6.6393   6.8421   7.6622
     7.9097   8.3586   9.1493   9.4656  10.3246  10.6611  10.8184  11.5528
    11.9573  12.8740  13.2124  13.8779  14.8547  15.5652  15.8121  15.8787
    16.2322  16.2900  16.8470  17.0345  17.0979  17.9043  18.2407  19.1189
    19.4776  19.6732  20.3352  20.8977  21.5782  21.6076  22.1590  22.7091
    22.9933  23.7222  23.8441  24.4950  24.8060  25.0821  25.4021  26.0799
    26.5798  26.6121  27.3983  27.7664  27.8242  28.3426  28.5831  28.8609
    29.0942  29.1778  29.5775  29.7711  30.1728  30.4541  30.5482  30.8493
    31.1195  31.5702  31.9325  32.2586  32.4728  33.2858  33.6416  33.7651
    34.1462  34.7117  35.2647  35.4040  36.2580  36.4826  36.6605  37.0678
    37.1779  37.8876  37.8907  38.2383  38.5745  39.3504  39.6204  39.9050
    40.2687  40.3617  40.5990  41.0969

          k = 0.2004-0.2314 0.0000 (  7922 PWs)   bands (ev):

   -14.6057 -13.7739  -6.3590  -5.0394  -4.8842  -4.0983  -3.0078  -2.2431
    -1.9150   1.0014   1.6136   1.8895   3.4330   5.8576   6.0206   6.9722
     7.9836   8.0817   8.7467   9.0681   9.7709  10.7038  11.2739  11.7483
    11.9930  12.4242  12.6229  14.0948  14.3786  15.7321  16.1644  16.6441
    16.7272  17.5043  17.7112  18.4084  18.7086  18.7641  18.9522  19.5748
    20.3784  20.6652  21.1969  21.7476  21.7699  22.2082  22.3999  22.9223
    23.2192  23.5982  24.2340  24.4551  24.8200  25.2135  25.3412  25.9203
    26.0152  26.5484  27.2054  27.5748  27.6015  28.3746  28.4581  28.8356
    29.0581  29.0952  29.5227  29.7508  29.8942  30.1842  30.8752  31.0737
    31.2273  31.6764  32.2361  32.5676  32.5940  33.2263  33.3600  33.8417
    34.2608  34.4685  34.6891  35.1742  35.3984  35.7725  35.8717  35.9818
    36.0964  36.7493  37.0029  37.3237  37.3467  37.9054  38.0920  38.1741
    38.3346  38.9695  39.1361  39.3322

          k = 0.2004-0.1157 0.0000 (  7941 PWs)   bands (ev):

   -14.9931 -14.0017  -6.4917  -4.7792  -4.4752  -3.3396  -3.1464  -2.3424
    -1.6394   1.2262   1.7108   1.8691   2.9032   5.3030   5.4737   6.3938
     7.6364   7.6399   8.7968   8.9114   9.2845  10.7418  11.3486  11.6819
    11.8247  12.4036  12.7950  13.5353  14.6045  15.3181  16.0465  17.0066
    17.5764  17.8804  18.0098  19.0464  19.5603  20.1058  20.5110  21.3894
    21.4290  21.7005  21.8068  21.8943  21.9322  22.5906  23.0147  23.0739
    23.2607  23.4992  24.0670  24.1557  24.6349  24.7732  25.6207  26.0368
    26.4871  26.6122  27.1392  27.5081  27.5643  28.3035  28.5095  28.9770
    29.4287  29.9598  30.1677  30.4325  30.8898  30.9383  30.9919  31.3069
    31.3479  31.5993  31.6953  31.7206  32.1471  32.9889  33.1494  33.5472
    33.6140  33.6461  33.8536  34.2060  34.3894  34.6045  34.9729  35.1514
    35.1967  35.5139  35.8055  35.8436  36.3438  36.6884  37.0500  37.1170
    37.3994  37.4266  37.6618  38.6385

          k = 0.3005 0.5205 0.0000 (  7973 PWs)   bands (ev):

   -13.2666 -12.9806  -6.7406  -6.2845  -5.2475  -4.7428  -4.3813  -3.2057
    -1.2285   1.0260   2.1084   2.7828   4.5296   6.2247   6.8470   8.3576
     9.4423  10.0720  10.7112  10.7270  11.3409  11.4605  11.5980  11.9689
    12.4448  12.5620  12.6986  12.9205  13.2536  13.6667  13.7917  13.9354
    14.5936  14.8932  15.7725  15.9244  16.3275  16.6552  17.7471  18.1696
    18.8459  19.0792  19.1997  19.6383  20.4313  21.7585  21.7682  22.7620
    22.8823  23.6985  23.8085  24.6631  24.7401  25.1108  25.2234  26.4290
    26.4482  27.2984  27.4495  27.9151  28.1744  28.5031  29.1644  29.7321
    30.2859  30.4118  30.5710  31.1298  31.3455  31.3930  31.8223  31.8305
    32.3796  32.6238  32.6467  33.4682  33.7916  33.9303  34.1310  34.2370
    34.7653  35.3990  35.4979  35.6264  36.1638  36.4691  36.6083  36.7839
    37.0235  37.1252  37.2547  38.0309  38.2643  38.7528  39.0661  39.1358
    39.6979  39.7546  40.3633  40.6147

          k = 0.3005 0.6362 0.0000 (  7979 PWs)   bands (ev):

   -13.2662 -12.9801  -6.7411  -6.2853  -5.2468  -4.7429  -4.3819  -3.2052
    -1.2292   1.0269   2.1084   2.7846   4.5285   6.2243   6.8463   8.3573
     9.4444  10.0724  10.7104  10.7291  11.3410  11.4570  11.5982  11.9698
    12.4458  12.5635  12.6968  12.9208  13.2534  13.6654  13.7907  13.9339
    14.5946  14.8952  15.7727  15.9234  16.3267  16.6540  17.7490  18.1700
    18.8493  19.0787  19.2003  19.6375  20.4314  21.7603  21.7667  22.7628
    22.8802  23.6976  23.8085  24.6639  24.7414  25.1142  25.2229  26.4295
    26.4482  27.2956  27.4490  27.9144  28.1743  28.5010  29.1618  29.7327
    30.2843  30.4128  30.5680  31.1272  31.3412  31.3872  31.8193  31.8253
    32.3742  32.6186  32.6441  33.4633  33.7942  33.9294  34.1288  34.2348
    34.7648  35.4087  35.5033  35.6281  36.1684  36.4686  36.6131  36.7844
    37.0240  37.1282  37.2530  38.0413  38.2675  38.7503  39.0637  39.1310
    39.6987  39.7586  40.3633  40.6146

          k = 0.3007-0.4049 0.0000 (  7957 PWs)   bands (ev):

   -13.5532 -13.1598  -6.6654  -6.3099  -4.9782  -4.5587  -4.0040  -2.8398
    -1.6279   1.3315   2.1873   2.3151   4.0556   6.3642   7.5746   7.6835
     8.6199   8.8987   9.3530   9.9915  10.5511  11.0597  11.1601  12.2289
    12.2956  13.0599  13.1541  13.6592  13.7822  14.2188  14.3575  14.7849
    15.5615  15.7728  16.1753  16.6628  17.3158  17.4463  18.1074  18.1197
    18.9871  19.3022  20.3246  20.6519  21.1172  21.2129  21.7463  22.1910
    22.8417  23.1593  23.4303  24.1077  24.8410  25.2508  25.3606  25.9826
    26.4084  27.0143  27.1110  27.7876  28.0033  28.1104  28.6689  29.0925
    29.3221  29.4112  30.0551  30.1651  30.6471  31.1332  31.4089  31.7472
    31.9843  32.1231  32.4983  32.8854  32.9763  33.4861  33.7786  34.1046
    34.3166  35.2760  35.5387  35.6704  35.9964  36.8863  37.1118  37.6707
    37.7441  38.1064  38.3467  38.5561  38.8554  39.3410  39.7393  39.9437
    40.0552  40.4409  40.8212  41.1852

          k = 0.3006-0.2892 0.0000 (  7940 PWs)   bands (ev):

   -13.9843 -13.4175  -6.6787  -5.7521  -5.1180  -4.3610  -2.9925  -2.6808
    -1.9185   1.1750   1.7807   2.4715   3.7021   6.5739   6.7643   7.0777
     7.9497   7.9840   9.3168   9.3220  10.3156  10.6897  10.9056  12.1917
    12.3798  12.9928  13.4748  13.9007  14.3159  14.9490  14.9836  15.6127
    16.1276  16.4302  17.3534  17.4153  17.9771  18.0334  18.7018  18.9082
    19.5826  19.9369  20.2723  20.6269  21.7051  21.7549  22.4345  22.5699
    22.9307  23.7133  24.1359  24.3847  24.4078  24.8826  25.0479  25.5945
    25.6236  25.9869  26.2334  26.5719  26.9625  27.6640  28.3420  28.5588
    29.1163  29.1860  29.6036  29.7441  30.3576  30.4547  31.0379  31.6571
    31.9113  32.5335  32.6831  32.8800  33.2572  33.5325  33.6953  34.2829
    34.4744  35.1111  35.1330  35.8772  36.1047  36.5591  36.8421  37.3060
    37.8655  38.0784  38.0830  38.5555  38.7103  39.2766  39.4032  39.5995
    39.7342  40.0298  40.8319  40.9275

          k = 0.3006-0.1736 0.0000 (  7926 PWs)   bands (ev):

   -14.3783 -13.6448  -6.4958  -5.3272  -5.1615  -3.8574  -2.7290  -2.5923
    -2.1532   1.2791   1.4446   2.4284   3.4167   6.0708   6.2359   7.1160
     7.5555   7.5878   8.8422   8.9434  10.3252  10.8387  11.7981  12.1966
    12.2545  12.7662  13.2400  14.2204  14.3508  14.9837  15.2207  15.4020
    16.2125  16.9148  17.4930  17.6748  18.4967  19.2783  19.5382  20.3796
    20.5616  21.0682  21.2236  21.6859  21.7831  21.8145  22.5649  22.6910
    22.7717  23.3490  23.3827  23.6461  23.8467  24.4382  24.9177  25.4575
    25.6216  26.0075  26.3920  27.1229  27.3830  27.8848  28.5757  28.8565
    28.9109  29.1591  29.2406  29.9200  30.6195  31.2760  31.2880  31.6437
    31.8652  31.8844  32.8199  32.8221  33.4811  33.6404  33.9913  34.0080
    34.5416  34.7823  34.8158  35.2663  35.4333  35.7699  36.0377  36.3220
    36.6168  36.6530  37.2746  37.3267  37.6839  38.0159  38.5824  38.5848
    39.1123  39.2191  39.6821  39.9619

          k = 0.4007 0.6940 0.0000 (  7972 PWs)   bands (ev):

   -13.3345 -13.0335  -6.7137  -6.6105  -5.2488  -4.4363  -4.0206  -3.1168
    -1.3703   1.2848   2.4239   2.5515   4.0823   5.6723   7.8358   8.3735
     8.8786   9.1748  10.0063  10.2454  10.8156  11.0389  11.3698  11.7254
    12.1754  12.3414  12.8577  13.5230  13.6513  14.2104  14.5806  14.9893
    15.1676  15.4874  15.6487  15.8209  17.2448  17.7070  18.1923  18.2448
    18.2491  19.1009  19.3794  20.6327  20.8494  21.4527  21.4809  22.2416
    22.5695  23.3517  23.7225  24.1634  24.9410  25.1401  25.5800  26.1814
    26.6971  26.7030  27.0872  27.4715  27.8623  27.9466  28.1771  28.8351
    29.1222  29.6556  30.0639  30.4377  30.6613  31.0865  31.2780  31.5218
    32.5689  33.0847  33.5756  33.6893  34.0399  34.1106  34.8949  35.0134
    35.4843  35.7859  35.8531  36.1382  36.3476  36.7203  36.8181  37.1846
    37.5185  37.8797  37.9476  38.1974  38.3422  38.8372  39.1612  39.5416
    39.7495  39.8219  40.4222  40.5989

          k = 0.4008-0.3471 0.0000 (  7972 PWs)   bands (ev):

   -13.5257 -13.1642  -7.0706  -6.3205  -5.3022  -4.4077  -3.0120  -2.8706
    -1.6339   1.5108   2.0946   3.0145   3.5061   5.5444   7.3832   7.5964
     8.3487   9.1034   9.3501   9.6286   9.9578  10.8670  10.9159  11.4611
    12.1557  12.4391  13.3547  13.4312  14.3725  14.5958  15.1330  15.5934
    15.9061  16.7883  17.2101  17.3171  17.8363  18.0303  18.1780  18.4120
    19.5804  19.8284  20.2825  20.3853  20.6263  20.8633  21.7935  22.0824
    22.7402  23.4109  23.7395  23.8383  24.1145  24.6578  24.8851  25.1140
    25.7379  25.8145  26.2253  26.5396  26.8490  27.6677  28.1103  28.3775
    28.8435  28.9740  29.3201  30.0773  30.1644  30.9488  31.3535  31.7784
    32.2321  32.4516  32.7420  33.5311  33.9841  34.6836  35.0696  35.0801
    35.1600  35.7776  36.3636  36.5581  36.8576  37.5362  37.5852  37.9976
    38.2616  38.6067  38.7779  39.2474  39.4244  39.5697  39.6810  40.5596
    40.6395  40.9960  41.1733  41.4731

          k = 0.4008-0.2314 0.0000 (  7972 PWs)   bands (ev):

   -13.7767 -13.3099  -7.0057  -6.0379  -5.2861  -4.2076  -3.0028  -2.1657
    -2.1143   1.4705   1.7356   2.9082   3.6875   5.9781   6.5655   6.9120
     7.9205   8.3965   9.2709   9.4528  10.2969  10.6114  11.0024  12.1445
    12.5355  12.6006  13.2965  13.6483  14.5081  14.8801  15.0608  15.9206
    16.1327  16.2897  17.1560  17.7026  17.7580  18.7171  19.0860  19.4595
    19.6278  20.5984  20.8295  20.9356  21.0833  21.4785  21.5105  22.1148
    22.6621  22.9778  22.9953  23.4858  24.1586  24.6543  24.6861  24.9458
    25.7787  26.0506  26.0648  26.3509  26.8894  27.0184  27.2619  27.9371
    28.1026  29.6575  29.6641  29.9449  30.5070  30.6366  30.9404  31.5474
    31.9862  32.2929  33.0011  33.5000  33.9675  34.2917  35.0828  35.2256
    35.2631  35.9839  36.2426  36.4006  36.7888  37.4664  37.6422  37.7900
    38.1219  38.3260  38.4498  38.6824  39.0005  39.2131  39.2857  39.5931
    39.6547  40.8904  41.0102  41.0631

          k =-0.5009-0.8675 0.0000 (  7952 PWs)   bands (ev):

   -13.5084 -13.1670  -7.2788  -6.3227  -5.3947  -4.3296  -3.0869  -2.0207
    -1.8957   1.5676   2.0752   3.0325   3.7636   5.1754   6.7450   7.3565
     8.2561   8.7548   9.5902  10.0719  10.2857  10.4101  10.9091  11.2107
    11.5722  11.8587  13.2709  13.8207  14.1318  15.0009  15.2947  16.6843
    16.6995  16.8111  17.2870  17.5771  17.6305  18.8029  19.2593  19.3140
    19.6806  20.0438  20.2595  20.6388  20.8884  21.0068  21.1835  21.7119
    22.5351  22.6694  22.8407  22.8873  24.1333  24.1805  24.4414  24.4883
    25.3454  25.6101  25.8811  26.3622  26.9414  26.9705  27.1590  28.1419
    28.9347  29.4755  29.5628  30.1911  30.8964  31.0485  31.2089  31.6841
    32.1034  32.5793  32.7469  33.0847  33.8194  34.2036  34.6666  34.7915
    35.0249  36.6773  37.1415  37.3522  37.6136  37.8897  37.9277  38.9269
    39.0643  39.2684  39.4033  39.6015  39.7277  41.0898  41.1619  41.2154
    41.2899  41.5035  41.6127  41.7261

          k =-0.1002-0.0578 0.0000 (  7961 PWs)   bands (ev):

   -15.4238 -14.2573  -6.8548  -4.0844  -3.6654  -3.5787  -2.8030  -2.2694
    -1.3038   1.8032   1.8204   2.1122   2.2937   4.7139   4.8878   5.7917
     6.2861   7.1382   8.4816   8.9113   9.4638  10.3974  10.5389  11.1876
    12.0721  12.1496  12.8173  14.5382  15.4099  15.8288  15.8651  16.1430
    16.5283  17.1106  19.3609  20.6445  20.8919  20.8947  21.2098  21.6818
    22.4677  23.0131  23.0454  23.1166  23.1312  23.8511  24.0759  24.1443
    24.8378  25.0523  25.4263  25.4637  25.5930  26.1760  26.6866  26.9764
    27.0463  27.0485  27.2535  27.4837  27.8745  28.0008  28.4556  28.5913
    28.7213  28.9173  29.0271  29.0458  29.6421  29.6946  30.0392  30.2032
    30.4126  30.8460  30.8825  31.4531  31.5510  31.7041  32.0770  32.1475
    32.5000  32.8064  33.0161  33.4537  33.4830  33.7260  34.3776  34.4516
    34.6571  34.9273  35.2245  35.2518  35.7247  36.5621  36.5987  36.6160
    36.7752  36.9995  37.5719  37.6669

          k =-0.2004-0.1157 0.0000 (  7941 PWs)   bands (ev):

   -14.9935 -14.0022  -6.4918  -4.7809  -4.4766  -3.3362  -3.1438  -2.3432
    -1.6406   1.2246   1.7139   1.8696   2.9036   5.3028   5.4733   6.3937
     7.6367   7.6394   8.7946   8.9104   9.2833  10.7405  11.3481  11.6848
    11.8236  12.4080  12.7929  13.5352  14.6075  15.3160  16.0456  17.0083
    17.5753  17.8750  18.0033  19.0403  19.5559  20.1009  20.5112  21.3888
    21.4312  21.6996  21.8131  21.8908  21.9385  22.5944  23.0213  23.0725
    23.2600  23.4980  24.0711  24.1623  24.6387  24.7748  25.6265  26.0343
    26.4899  26.6119  27.1453  27.5067  27.5643  28.3084  28.5095  28.9773
    29.4321  29.9601  30.1670  30.4360  30.8870  30.9403  30.9959  31.3059
    31.3507  31.6011  31.6979  31.7206  32.1495  32.9881  33.1501  33.5446
    33.6165  33.6428  33.8557  34.2004  34.3831  34.6090  34.9773  35.1520
    35.1950  35.5080  35.7983  35.8400  36.3518  36.6813  37.0494  37.1184
    37.4028  37.4191  37.6665  38.6346

          k =-0.3006-0.1735 0.0000 (  7924 PWs)   bands (ev):

   -14.3790 -13.6458  -6.4959  -5.3280  -5.1631  -3.8536  -2.7297  -2.5895
    -2.1549   1.2787   1.4468   2.4293   3.4174   6.0706   6.2353   7.1162
     7.5539   7.5876   8.8421   8.9421  10.3238  10.8375  11.7945  12.1997
    12.2532  12.7646  13.2430  14.2185  14.3528  14.9797  15.2169  15.4002
    16.2079  16.9119  17.4905  17.6764  18.4958  19.2745  19.5383  20.3859
    20.5644  21.0683  21.2300  21.6910  21.7904  21.8139  22.5665  22.6934
    22.7704  23.3556  23.3890  23.6439  23.8472  24.4362  24.9172  25.4563
    25.6275  26.0077  26.3975  27.1222  27.3833  27.8877  28.5753  28.8563
    28.9122  29.1574  29.2400  29.9216  30.6197  31.2808  31.2839  31.6472
    31.8645  31.8853  32.8211  32.8257  33.4831  33.6448  33.9921  34.0069
    34.5449  34.7826  34.8186  35.2684  35.4334  35.7777  36.0402  36.3246
    36.6205  36.6536  37.2701  37.3248  37.6801  38.0177  38.5760  38.5881
    39.1053  39.2228  39.6798  39.9646

          k =-0.4008-0.2313 0.0000 (  7970 PWs)   bands (ev):

   -13.7778 -13.3115  -7.0062  -6.0377  -5.2869  -4.2034  -3.0042  -2.1623
    -2.1162   1.4709   1.7354   2.9099   3.6888   5.9760   6.5660   6.9124
     7.9205   8.3955   9.2701   9.4509  10.2945  10.6089  11.0066  12.1415
    12.5330  12.5983  13.2936  13.6458  14.5101  14.8764  15.0581  15.9217
    16.1322  16.2876  17.1523  17.7019  17.7579  18.7160  19.0882  19.4660
    19.6279  20.6013  20.8361  20.9346  21.0910  21.4827  21.5154  22.1135
    22.6691  22.9846  22.9981  23.4885  24.1560  24.6546  24.6882  24.9496
    25.7770  26.0543  26.0622  26.3528  26.8882  27.0222  27.2630  27.9343
    28.0989  29.6558  29.6704  29.9469  30.5072  30.6354  30.9468  31.5479
    31.9923  32.2941  32.9993  33.4959  33.9701  34.2909  35.0910  35.2213
    35.2654  35.9879  36.2429  36.3990  36.7903  37.4653  37.6434  37.7903
    38.1244  38.3254  38.4484  38.6768  38.9903  39.2151  39.2855  39.5912
    39.6551  40.8895  41.0084  41.0645

          k = 0.5010 0.2891 0.0000 (  7952 PWs)   bands (ev):

   -13.5097 -13.1688  -7.2795  -6.3221  -5.3950  -4.3254  -3.0886  -2.0169
    -1.8980   1.5670   2.0749   3.0346   3.7650   5.1736   6.7474   7.3571
     8.2534   8.7536   9.5881  10.0696  10.2832  10.4150  10.9064  11.2084
    11.5700  11.8564  13.2682  13.8181  14.1304  14.9988  15.2971  16.6858
    16.6967  16.8080  17.2867  17.5747  17.6326  18.8009  19.2580  19.3200
    19.6838  20.0402  20.2574  20.6458  20.8962  21.0133  21.1893  21.7092
    22.5422  22.6741  22.8478  22.8894  24.1361  24.1803  24.4399  24.4865
    25.3476  25.6161  25.8843  26.3686  26.9415  26.9721  27.1606  28.1393
    28.9347  29.4726  29.5700  30.1877  30.9027  31.0467  31.2053  31.6826
    32.1038  32.5869  32.7440  33.0837  33.8184  34.2034  34.6626  34.7991
    35.0253  36.6731  37.1468  37.3511  37.6100  37.8871  37.9327  38.9244
    39.0629  39.2674  39.3947  39.6021  39.7236  41.0876  41.1609  41.2119
    41.2910  41.4996  41.6104  41.7249

          k =-0.2004-0.2313 0.0000 (  7922 PWs)   bands (ev):

   -14.6063 -13.7747  -6.3591  -5.0401  -4.8848  -4.0962  -3.0068  -2.2432
    -1.9153   1.0020   1.6133   1.8916   3.4321   5.8570   6.0201   6.9718
     7.9833   8.0831   8.7473   9.0668   9.7698  10.7054  11.2744  11.7473
    11.9913  12.4239  12.6213  14.0948  14.3781  15.7326  16.1632  16.6398
    16.7255  17.5029  17.7071  18.4102  18.7090  18.7639  18.9507  19.5775
    20.3750  20.6669  21.1941  21.7492  21.7681  22.2084  22.4030  22.9195
    23.2159  23.5989  24.2369  24.4568  24.8258  25.2140  25.3456  25.9266
    26.0183  26.5512  27.2118  27.5780  27.6064  28.3706  28.4608  28.8373
    29.0609  29.0977  29.5258  29.7490  29.9007  30.1846  30.8758  31.0788
    31.2315  31.6798  32.2389  32.5709  32.5961  33.2280  33.3661  33.8429
    34.2655  34.4670  34.6890  35.1760  35.4014  35.7705  35.8728  35.9770
    36.0904  36.7450  37.0003  37.3253  37.3424  37.9048  38.0916  38.1629
    38.3283  38.9683  39.1346  39.3358

          k =-0.3006-0.2892 0.0000 (  7940 PWs)   bands (ev):

   -13.9853 -13.4188  -6.6784  -5.7517  -5.1190  -4.3584  -2.9922  -2.6815
    -1.9175   1.1759   1.7787   2.4736   3.7024   6.5727   6.7640   7.0777
     7.9506   7.9829   9.3172   9.3218  10.3155  10.6884  10.9060  12.1890
    12.3791  12.9925  13.4745  13.8977  14.3132  14.9472  14.9827  15.6112
    16.1255  16.4298  17.3519  17.4177  17.9788  18.0324  18.7052  18.9082
    19.5817  19.9372  20.2740  20.6298  21.7048  21.7553  22.4336  22.5736
    22.9309  23.7185  24.1368  24.3901  24.4108  24.8860  25.0473  25.5890
    25.6219  25.9894  26.2376  26.5734  26.9662  27.6674  28.3431  28.5613
    29.1173  29.1877  29.6064  29.7473  30.3588  30.4570  31.0393  31.6614
    31.9121  32.5362  32.6876  32.8810  33.2641  33.5348  33.6990  34.2847
    34.4802  35.1140  35.1328  35.8772  36.1056  36.5623  36.8440  37.3057
    37.8656  38.0787  38.0837  38.5542  38.7080  39.2727  39.4025  39.5969
    39.7325  40.0287  40.8298  40.9247

          k =-0.4007-0.3470 0.0000 (  7974 PWs)   bands (ev):

   -13.5270 -13.1659  -7.0709  -6.3196  -5.3027  -4.4045  -3.0134  -2.8693
    -1.6337   1.5107   2.0925   3.0162   3.5078   5.5432   7.3844   7.5966
     8.3483   9.1040   9.3494   9.6260   9.9588  10.8652  10.9138  11.4592
    12.1534  12.4370  13.3535  13.4294  14.3724  14.5944  15.1303  15.5934
    15.9058  16.7909  17.2084  17.3184  17.8379  18.0282  18.1833  18.4127
    19.5822  19.8291  20.2806  20.3875  20.6247  20.8656  21.7952  22.0802
    22.7438  23.4131  23.7450  23.8395  24.1198  24.6621  24.8849  25.1184
    25.7418  25.8179  26.2251  26.5432  26.8491  27.6720  28.1152  28.3768
    28.8467  28.9746  29.3212  30.0796  30.1629  30.9468  31.3550  31.7771
    32.2364  32.4504  32.7413  33.5323  33.9846  34.6850  35.0697  35.0802
    35.1626  35.7810  36.3634  36.5601  36.8585  37.5325  37.5894  37.9967
    38.2609  38.6063  38.7758  39.2471  39.4251  39.5647  39.6835  40.5602
    40.6363  40.9880  41.1691  41.4741

          k = 0.5010 0.1734 0.0000 (  7974 PWs)   bands (ev):

   -13.5268 -13.1657  -7.0712  -6.3199  -5.3026  -4.4046  -3.0131  -2.8687
    -1.6345   1.5101   2.0949   3.0159   3.5078   5.5424   7.3844   7.5969
     8.3481   9.1040   9.3499   9.6261   9.9588  10.8658  10.9139  11.4582
    12.1529  12.4360  13.3525  13.4294  14.3727  14.5929  15.1311  15.5912
    15.9036  16.7912  17.2093  17.3193  17.8397  18.0303  18.1839  18.4140
    19.5821  19.8297  20.2831  20.3871  20.6255  20.8660  21.7967  22.0805
    22.7439  23.4127  23.7447  23.8410  24.1195  24.6619  24.8838  25.1173
    25.7406  25.8170  26.2252  26.5435  26.8462  27.6720  28.1147  28.3761
    28.8465  28.9718  29.3217  30.0786  30.1645  30.9476  31.3536  31.7769
    32.2382  32.4493  32.7414  33.5344  33.9821  34.6857  35.0693  35.0794
    35.1575  35.7742  36.3595  36.5526  36.8521  37.5272  37.5826  38.0003
    38.2520  38.6014  38.7784  39.2481  39.4267  39.5669  39.6841  40.5622
    40.6386  40.9967  41.1714  41.4703

          k = 0.4008 0.1156 0.0000 (  7940 PWs)   bands (ev):

   -13.9849 -13.4184  -6.6791  -5.7525  -5.1192  -4.3584  -2.9908  -2.6810
    -1.9189   1.1752   1.7817   2.4723   3.7031   6.5727   6.7640   7.0770
     7.9500   7.9835   9.3171   9.3218  10.3173  10.6879  10.9056  12.1882
    12.3776  12.9905  13.4740  13.8960  14.3123  14.9456  14.9851  15.6131
    16.1249  16.4296  17.3529  17.4190  17.9810  18.0329  18.7075  18.9096
    19.5823  19.9377  20.2758  20.6310  21.7068  21.7547  22.4336  22.5738
    22.9296  23.7177  24.1390  24.3887  24.4102  24.8851  25.0486  25.5903
    25.6247  25.9893  26.2363  26.5728  26.9652  27.6669  28.3436  28.5591
    29.1164  29.1843  29.6072  29.7443  30.3552  30.4544  31.0382  31.6545
    31.9065  32.5366  32.6808  32.8752  33.2540  33.5345  33.6967  34.2788
    34.4702  35.1136  35.1341  35.8779  36.1041  36.5610  36.8387  37.3030
    37.8659  38.0757  38.0856  38.5617  38.7152  39.2801  39.4069  39.6026
    39.7324  40.0319  40.8383  40.9269

          k = 0.3006 0.0578 0.0000 (  7925 PWs)   bands (ev):

   -14.6059 -13.7742  -6.3591  -5.0405  -4.8855  -4.0961  -3.0063  -2.2430
    -1.9158   1.0015   1.6147   1.8895   3.4336   5.8574   6.0203   6.9722
     7.9830   8.0820   8.7466   9.0663   9.7700  10.7042  11.2729  11.7475
    11.9947  12.4238  12.6219  14.0961  14.3800  15.7313  16.1624  16.6379
    16.7251  17.5040  17.7053  18.4133  18.7097  18.7657  18.9516  19.5814
    20.3742  20.6700  21.1962  21.7501  21.7675  22.2097  22.4022  22.9212
    23.2159  23.5996  24.2382  24.4578  24.8219  25.2135  25.3425  25.9235
    26.0168  26.5507  27.2101  27.5743  27.6040  28.3737  28.4600  28.8342
    29.0547  29.0949  29.5239  29.7486  29.8926  30.1836  30.8732  31.0717
    31.2251  31.6775  32.2373  32.5647  32.5938  33.2251  33.3584  33.8458
    34.2628  34.4745  34.6845  35.1745  35.4020  35.7740  35.8730  35.9848
    36.0963  36.7520  37.0059  37.3244  37.3457  37.9017  38.0958  38.1640
    38.3287  38.9733  39.1346  39.3380

          k = 0.2004-0.0000 0.0000 (  7945 PWs)   bands (ev):

   -15.1318 -14.0835  -6.5819  -4.5812  -4.1726  -3.4104  -3.3097  -2.0824
    -1.4989   1.3226   1.6495   1.7865   2.8219   5.1340   5.2909   6.2360
     7.4587   7.5059   8.6634   9.2075   9.3991  10.2551  11.0259  11.2026
    11.9620  12.2587  12.7798  14.2388  14.4127  15.7787  15.9079  16.4534
    17.3192  18.9233  19.4050  19.5235  19.7766  19.9092  20.4594  20.8041
    21.1551  21.4030  21.6652  21.9768  22.1235  22.7021  22.8191  23.5620
    24.0469  24.4397  24.5991  25.1640  25.7824  26.0115  26.2573  26.3047
    26.8320  26.8901  27.3521  27.4361  27.4901  27.8282  27.9911  28.0749
    28.7032  29.1087  29.9252  30.0230  30.2630  30.5342  30.5623  31.0469
    31.4095  31.5538  32.1662  32.2689  32.3888  32.6581  32.7628  33.2058
    33.4835  33.4860  33.8019  33.9162  34.0208  34.3366  34.4389  34.6437
    34.8180  34.8481  35.6284  36.0443  36.2290  36.2455  36.7373  36.8193
    37.3731  37.7339  38.1831  38.2316

          k =-0.3005-0.4048 0.0000 (  7957 PWs)   bands (ev):

   -13.5542 -13.1610  -6.6646  -6.3087  -4.9789  -4.5574  -4.0038  -2.8407
    -1.6267   1.3312   2.1836   2.3159   4.0573   6.3638   7.5749   7.6834
     8.6194   8.9003   9.3517   9.9911  10.5545  11.0580  11.1599  12.2276
    12.2938  13.0593  13.1523  13.6578  13.7821  14.2186  14.3552  14.7877
    15.5626  15.7762  16.1752  16.6624  17.3153  17.4447  18.1078  18.1209
    18.9861  19.3012  20.3231  20.6499  21.1178  21.2129  21.7472  22.1905
    22.8386  23.1582  23.4337  24.1071  24.8395  25.2520  25.3631  25.9805
    26.4089  27.0195  27.1150  27.7920  28.0085  28.1155  28.6723  29.0932
    29.3277  29.4150  30.0585  30.1682  30.6473  31.1356  31.4087  31.7507
    31.9888  32.1266  32.5004  32.8864  32.9778  33.4925  33.7780  34.1080
    34.3168  35.2728  35.5436  35.6722  35.9997  36.8854  37.1145  37.6700
    37.7461  38.1082  38.3435  38.5516  38.8524  39.3384  39.7421  39.9362
    40.0539  40.4338  40.8153  41.1757

          k =-0.4007-0.4627 0.0000 (  7968 PWs)   bands (ev):

   -13.3353 -13.0345  -6.7139  -6.6096  -5.2491  -4.4346  -4.0192  -3.1178
    -1.3706   1.2841   2.4244   2.5500   4.0846   5.6712   7.8381   8.3717
     8.8777   9.1779  10.0043  10.2459  10.8148  11.0381  11.3682  11.7241
    12.1737  12.3399  12.8576  13.5207  13.6482  14.2098  14.5842  14.9880
    15.1663  15.4859  15.6527  15.8239  17.2449  17.7095  18.1910  18.2468
    18.2500  19.0999  19.3770  20.6357  20.8512  21.4547  21.4788  22.2403
    22.5732  23.3501  23.7257  24.1629  24.9387  25.1372  25.5815  26.1836
    26.7008  26.7069  27.0860  27.4795  27.8625  27.9475  28.1811  28.8393
    29.1279  29.6585  30.0606  30.4414  30.6614  31.0888  31.2849  31.5254
    32.5665  33.0850  33.5829  33.6852  34.0430  34.1092  34.8910  35.0110
    35.4798  35.7815  35.8507  36.1410  36.3437  36.7170  36.8147  37.1805
    37.5162  37.8794  37.9509  38.1903  38.3355  38.8388  39.1609  39.5426
    39.7479  39.8206  40.4172  40.6017

          k = 0.5010 0.0578 0.0000 (  7957 PWs)   bands (ev):

   -13.5536 -13.1604  -6.6657  -6.3096  -4.9789  -4.5578  -4.0025  -2.8401
    -1.6283   1.3313   2.1875   2.3155   4.0565   6.3624   7.5756   7.6831
     8.6206   8.8991   9.3531   9.9917  10.5529  11.0581  11.1602  12.2279
    12.2917  13.0584  13.1495  13.6582  13.7814  14.2160  14.3558  14.7885
    15.5629  15.7772  16.1756  16.6618  17.3156  17.4465  18.1084  18.1228
    18.9892  19.3006  20.3244  20.6519  21.1196  21.2147  21.7467  22.1931
    22.8407  23.1588  23.4334  24.1071  24.8381  25.2513  25.3617  25.9820
    26.4074  27.0184  27.1148  27.7902  28.0073  28.1140  28.6699  29.0895
    29.3269  29.4124  30.0564  30.1687  30.6472  31.1313  31.4080  31.7422
    31.9811  32.1245  32.4947  32.8826  32.9769  33.4849  33.7770  34.1018
    34.3153  35.2747  35.5401  35.6710  35.9948  36.8843  37.1077  37.6718
    37.7422  38.1076  38.3482  38.5567  38.8542  39.3404  39.7393  39.9433
    40.0558  40.4404  40.8187  41.1850

          k = 0.4008-0.0001 0.0000 (  7915 PWs)   bands (ev):

   -14.0639 -13.4568  -6.4812  -5.5506  -4.9238  -4.6206  -3.5277  -2.3819
    -1.8953   0.9929   1.8600   2.0420   3.8774   6.6393   6.8421   7.6622
     7.9097   8.3586   9.1493   9.4656  10.3246  10.6611  10.8184  11.5528
    11.9573  12.8740  13.2124  13.8779  14.8547  15.5652  15.8121  15.8787
    16.2322  16.2900  16.8470  17.0345  17.0979  17.9043  18.2407  19.1189
    19.4776  19.6732  20.3352  20.8977  21.5782  21.6076  22.1590  22.7091
    22.9933  23.7222  23.8441  24.4950  24.8060  25.0821  25.4021  26.0799
    26.5798  26.6121  27.3983  27.7664  27.8242  28.3426  28.5831  28.8609
    29.0942  29.1778  29.5775  29.7711  30.1728  30.4541  30.5482  30.8493
    31.1195  31.5702  31.9325  32.2586  32.4728  33.2858  33.6416  33.7651
    34.1462  34.7117  35.2647  35.4040  36.2580  36.4826  36.6605  37.0678
    37.1779  37.8876  37.8907  38.2383  38.5745  39.3504  39.6204  39.9050
    40.2687  40.3617  40.5990  41.0969

          k = 0.3006-0.0579 0.0000 (  7922 PWs)   bands (ev):

   -14.6057 -13.7739  -6.3590  -5.0394  -4.8842  -4.0983  -3.0078  -2.2431
    -1.9150   1.0014   1.6136   1.8895   3.4330   5.8576   6.0206   6.9722
     7.9836   8.0817   8.7467   9.0681   9.7709  10.7038  11.2739  11.7483
    11.9930  12.4242  12.6229  14.0948  14.3786  15.7321  16.1644  16.6441
    16.7272  17.5043  17.7112  18.4084  18.7086  18.7642  18.9522  19.5748
    20.3784  20.6652  21.1969  21.7476  21.7699  22.2082  22.3999  22.9223
    23.2192  23.5982  24.2340  24.4551  24.8200  25.2135  25.3412  25.9203
    26.0152  26.5484  27.2054  27.5748  27.6015  28.3746  28.4581  28.8356
    29.0581  29.0952  29.5227  29.7508  29.8942  30.1842  30.8752  31.0737
    31.2273  31.6764  32.2361  32.5676  32.5940  33.2263  33.3600  33.8417
    34.2608  34.4685  34.6891  35.1742  35.3984  35.7725  35.8717  35.9818
    36.0964  36.7493  37.0029  37.3237  37.3468  37.9054  38.0920  38.1741
    38.3346  38.9695  39.1361  39.3322

          k =-0.4007-0.5783 0.0000 (  7979 PWs)   bands (ev):

   -13.2662 -12.9801  -6.7411  -6.2853  -5.2468  -4.7429  -4.3819  -3.2052
    -1.2292   1.0269   2.1084   2.7846   4.5285   6.2243   6.8463   8.3573
     9.4444  10.0724  10.7104  10.7291  11.3410  11.4570  11.5982  11.9698
    12.4458  12.5635  12.6968  12.9208  13.2534  13.6654  13.7907  13.9339
    14.5946  14.8952  15.7727  15.9234  16.3267  16.6540  17.7490  18.1700
    18.8493  19.0787  19.2003  19.6375  20.4314  21.7603  21.7667  22.7628
    22.8802  23.6976  23.8085  24.6639  24.7414  25.1142  25.2229  26.4295
    26.4482  27.2956  27.4490  27.9144  28.1743  28.5010  29.1618  29.7327
    30.2843  30.4128  30.5680  31.1272  31.3412  31.3872  31.8193  31.8253
    32.3742  32.6186  32.6441  33.4633  33.7942  33.9294  34.1288  34.2348
    34.7648  35.4087  35.5033  35.6281  36.1684  36.4686  36.6132  36.7844
    37.0240  37.1282  37.2530  38.0413  38.2675  38.7503  39.0637  39.1310
    39.6987  39.7586  40.3633  40.6146

          k = 0.5010-0.0579 0.0000 (  7957 PWs)   bands (ev):

   -13.5532 -13.1598  -6.6654  -6.3099  -4.9782  -4.5587  -4.0040  -2.8398
    -1.6279   1.3315   2.1873   2.3151   4.0556   6.3642   7.5746   7.6835
     8.6199   8.8987   9.3530   9.9915  10.5511  11.0597  11.1601  12.2289
    12.2956  13.0599  13.1541  13.6592  13.7822  14.2188  14.3575  14.7849
    15.5615  15.7728  16.1753  16.6628  17.3158  17.4463  18.1074  18.1197
    18.9871  19.3022  20.3246  20.6519  21.1172  21.2129  21.7463  22.1910
    22.8417  23.1593  23.4303  24.1077  24.8410  25.2508  25.3606  25.9826
    26.4084  27.0143  27.1110  27.7876  28.0033  28.1104  28.6689  29.0925
    29.3221  29.4112  30.0551  30.1651  30.6471  31.1332  31.4089  31.7472
    31.9843  32.1231  32.4983  32.8854  32.9763  33.4861  33.7786  34.1046
    34.3166  35.2760  35.5387  35.6704  35.9964  36.8863  37.1118  37.6707
    37.7441  38.1064  38.3467  38.5561  38.8554  39.3410  39.7393  39.9437
    40.0552  40.4409  40.8212  41.1852

          k = 0.4008-0.1157 0.0000 (  7940 PWs)   bands (ev):

   -13.9843 -13.4175  -6.6787  -5.7521  -5.1180  -4.3610  -2.9925  -2.6808
    -1.9185   1.1750   1.7807   2.4715   3.7021   6.5739   6.7643   7.0777
     7.9497   7.9840   9.3168   9.3220  10.3156  10.6897  10.9056  12.1917
    12.3798  12.9928  13.4748  13.9007  14.3159  14.9490  14.9836  15.6127
    16.1276  16.4302  17.3534  17.4153  17.9771  18.0334  18.7018  18.9082
    19.5826  19.9369  20.2723  20.6269  21.7051  21.7549  22.4345  22.5699
    22.9307  23.7133  24.1359  24.3847  24.4078  24.8826  25.0479  25.5945
    25.6236  25.9869  26.2334  26.5719  26.9625  27.6640  28.3420  28.5588
    29.1163  29.1860  29.6036  29.7441  30.3576  30.4547  31.0379  31.6571
    31.9113  32.5335  32.6831  32.8800  33.2572  33.5325  33.6953  34.2829
    34.4744  35.1111  35.1330  35.8772  36.1047  36.5591  36.8421  37.3060
    37.8655  38.0784  38.0830  38.5555  38.7103  39.2766  39.4032  39.5995
    39.7342  40.0298  40.8319  40.9275

          k = 0.5010-0.1736 0.0000 (  7972 PWs)   bands (ev):

   -13.5257 -13.1642  -7.0706  -6.3205  -5.3022  -4.4077  -3.0120  -2.8706
    -1.6339   1.5108   2.0946   3.0145   3.5061   5.5444   7.3832   7.5964
     8.3487   9.1034   9.3501   9.6286   9.9578  10.8670  10.9159  11.4611
    12.1557  12.4391  13.3547  13.4312  14.3725  14.5958  15.1330  15.5934
    15.9061  16.7883  17.2101  17.3171  17.8363  18.0303  18.1780  18.4120
    19.5804  19.8284  20.2825  20.3853  20.6263  20.8633  21.7935  22.0824
    22.7402  23.4109  23.7395  23.8383  24.1145  24.6578  24.8851  25.1140
    25.7379  25.8145  26.2253  26.5396  26.8490  27.6677  28.1103  28.3775
    28.8435  28.9740  29.3201  30.0773  30.1644  30.9488  31.3535  31.7784
    32.2321  32.4516  32.7420  33.5311  33.9841  34.6836  35.0696  35.0801
    35.1600  35.7776  36.3636  36.5581  36.8576  37.5362  37.5852  37.9976
    38.2616  38.6067  38.7779  39.2474  39.4244  39.5697  39.6810  40.5596
    40.6395  40.9960  41.1733  41.4731

     highest occupied, lowest unoccupied level (ev):    -1.2285    0.9929

!    total energy              =     -57.55769003 Ry
     Harris-Foulkes estimate   =     -57.55769003 Ry
     estimated scf accuracy    <          4.7E-10 Ry

     The total energy is the sum of the following terms:

     one-electron contribution =    -411.21891535 Ry
     hartree contribution      =     210.09222721 Ry
     xc contribution           =     -13.23170994 Ry
     ewald contribution        =     156.84386284 Ry
     Dispersion Correction     =      -0.04315479 Ry

     convergence has been achieved in  11 iterations

     Forces acting on atoms (cartesian axes, Ry/au):

     atom    1 type  1   force =    -0.00008320    0.00004803   -0.00000720
     atom    2 type  2   force =     0.00004158   -0.00002400   -0.00073728
     atom    3 type  2   force =     0.00004162   -0.00002402    0.00074448

     Total force =     0.001054     Total SCF correction =     0.000048


     Computing stress (Cartesian axis) and pressure

          total   stress  (Ry/bohr**3)                   (kbar)     P=       -0.56
  -0.00000109  -0.00000059  -0.00000000           -0.16       -0.09       -0.00
  -0.00000059  -0.00000177   0.00000000           -0.09       -0.26        0.00
  -0.00000000   0.00000000  -0.00000849           -0.00        0.00       -1.25


     Writing output data file ./out/1x1_MoS2.save/

     init_run     :      8.02s CPU      8.13s WALL (       1 calls)
     electrons    :    371.82s CPU    377.35s WALL (       1 calls)
     forces       :      1.38s CPU      1.39s WALL (       1 calls)
     stress       :      2.41s CPU      2.44s WALL (       1 calls)

     Called by init_run:
     wfcinit      :      7.69s CPU      7.80s WALL (       1 calls)
     potinit      :      0.14s CPU      0.15s WALL (       1 calls)
     hinit0       :      0.11s CPU      0.11s WALL (       1 calls)

     Called by electrons:
     c_bands      :    350.84s CPU    356.14s WALL (      11 calls)
     sum_band     :     20.72s CPU     20.92s WALL (      11 calls)
     v_of_rho     :      0.08s CPU      0.09s WALL (      12 calls)
     mix_rho      :      0.07s CPU      0.08s WALL (      11 calls)

     Called by c_bands:
     init_us_2    :      0.40s CPU      0.41s WALL (    1300 calls)
     cegterg      :    333.67s CPU    338.66s WALL (     572 calls)

     Called by sum_band:

     Called by *egterg:
     h_psi        :    116.05s CPU    118.02s WALL (    2519 calls)
     g_psi        :      0.20s CPU      0.20s WALL (    1895 calls)
     cdiaghg      :     95.00s CPU     95.31s WALL (    2467 calls)

     Called by h_psi:
     h_psi:calbec :      7.04s CPU      7.30s WALL (    2519 calls)
     vloc_psi     :    105.17s CPU    106.74s WALL (    2519 calls)
     add_vuspsi   :      3.18s CPU      3.22s WALL (    2519 calls)

     General routines
     calbec       :      9.38s CPU      9.66s WALL (    2779 calls)
     fft          :      0.14s CPU      0.17s WALL (      62 calls)
     ffts         :      0.03s CPU      0.03s WALL (      23 calls)
     fftw         :    121.34s CPU    123.04s WALL (  343570 calls)
     interpolate  :      0.05s CPU      0.05s WALL (      12 calls)

     Parallel routines
     fft_scatt_xy :      6.25s CPU      6.32s WALL (  343655 calls)
     fft_scatt_yz :     81.44s CPU     82.74s WALL (  343655 calls)

     PWSCF        :   6m25.88s CPU   6m32.44s WALL


   This run was terminated on:  19:57: 2  23May2022            

=------------------------------------------------------------------------------=
   JOB DONE.
=------------------------------------------------------------------------------=
