
     Program PWSCF v.6.5Max starts on 23May2022 at 20: 0:20 

     This program is part of the open-source Quantum ESPRESSO suite
     for quantum simulation of materials; please cite
         "P. Giannozzi et al., J. Phys.:Condens. Matter 21 395502 (2009);
         "P. Giannozzi et al., J. Phys.:Condens. Matter 29 465901 (2017);
          URL http://www.quantum-espresso.org", 
     in publications or presentations arising from this work. More details at
     http://www.quantum-espresso.org/quote

     Parallel version (MPI), running on    16 processors

     MPI processes distributed on     1 nodes
     R & G space division:  proc/nbgrp/npool/nimage =      16
     Waiting for input...
     Reading input from standard input
Warning: card  &CELL ignored
Warning: card CELL_DYNAMICS='BFGS' ignored
Warning: card CELL_FACTOR=2.5 ignored
Warning: card CELL_DOFREE='2DXY' ignored
Warning: card / ignored

     Current dimensions of program PWSCF are:
     Max number of different atomic species (ntypx) = 10
     Max number of k-points (npk) =  40000
     Max angular momentum in pseudopotentials (lmaxx) =  3

     Atomic positions and unit cell read from directory:
     ./out/1x1_MoS2.save/                                                                                                                                                                                                                                            

               file Mo.pw-mt_fhi.UPF: wavefunction(s)  4f renormalized
               file S.pw-mt_fhi.UPF: wavefunction(s)  4f renormalized

     -------------------------------------------------
     Parameters for Dispersion (Grimme-D2) Correction:
     -------------------------------------------------
       atom      VdW radius       C_6     

        Mo         3.097        855.833
        S          3.180        193.230

     Subspace diagonalization in iterative solution of the eigenvalue problem:
     a serial algorithm will be used

     Message from routine setup:
     no reason to have ecutrho>4*ecutwfc

     Parallelization info
     --------------------
     sticks:   dense  smooth     PW     G-vecs:    dense   smooth      PW
     Min          88      34     11                15714     3948     719
     Max          89      35     12                15731     3981     736
     Sum        1417     559    187               251567    63583   11719



     bravais-lattice index     =            0
     lattice parameter (alat)  =       5.8578  a.u.
     unit-cell volume          =    1012.8512 (a.u.)^3
     number of atoms/cell      =            3
     number of atomic types    =            2
     number of electrons       =        18.00
     number of Kohn-Sham states=          100
     kinetic-energy cutoff     =      60.0000  Ry
     charge density cutoff     =     600.0000  Ry
     Exchange-correlation= SLA-PW
                           (   1   4   0   0   0   0   0)

     celldm(1)=   5.857840  celldm(2)=   0.000000  celldm(3)=   0.000000
     celldm(4)=   0.000000  celldm(5)=   0.000000  celldm(6)=   0.000000

     crystal axes: (cart. coord. in units of alat)
               a(1) = (   0.998010   0.000148   0.000000 )  
               a(2) = (  -0.498877   0.864376   0.000000 )  
               a(3) = (   0.000000   0.000000   5.840610 )  

     reciprocal axes: (cart. coord. in units 2 pi/alat)
               b(1) = (  1.001908  0.578254 -0.000000 )  
               b(2) = ( -0.000171  1.156805  0.000000 )  
               b(3) = (  0.000000 -0.000000  0.171215 )  


     PseudoPot. # 1 for Mo read from file:
     ./Mo.pw-mt_fhi.UPF
     MD5 check sum: 39557091c5c29ab518dcc42d2770f0a9
     Pseudo is Norm-conserving, Zval =  6.0
     Generated using FHI98PP, converted with fhi2upf.x v.5.0.1
     Using radial grid of  541 points,  3 beta functions with: 
                l(1) =   0
                l(2) =   2
                l(3) =   3

     PseudoPot. # 2 for S  read from file:
     ./S.pw-mt_fhi.UPF
     MD5 check sum: 498597b413bac406373b42162ed9f1a5
     Pseudo is Norm-conserving, Zval =  6.0
     Generated using FHI98PP, converted with fhi2upf.x v.5.0.1
     Using radial grid of  501 points,  3 beta functions with: 
                l(1) =   0
                l(2) =   1
                l(3) =   3

     atomic species   valence    mass     pseudopotential
        Mo             6.00    95.95000     Mo( 1.00)
        S              6.00    32.06500     S ( 1.00)

     No symmetry found


                                    s                        frac. trans.

      isym =  1     identity                                     

 cryst.   s( 1) = (     1          0          0      )
                  (     0          1          0      )
                  (     0          0          1      )

 cart.    s( 1) = (  1.0000000  0.0000000  0.0000000 )
                  ( -0.0000000  1.0000000  0.0000000 )
                  (  0.0000000  0.0000000  1.0000000 )


   Cartesian axes

     site n.     atom                  positions (alat units)
         1           Mo  tau(   1) = (   0.4955669   0.2786269   3.5999512  )
         2           S   tau(   2) = (  -0.0034576   0.5667389   4.0985121  )
         3           S   tau(   3) = (  -0.0034576   0.5667389   3.1013879  )

   Crystallographic axes

     site n.     atom                  positions (cryst. coord.)
         1           Mo  tau(   1) = (  0.6576295  0.3222320  0.6163656  )
         2           S   tau(   2) = (  0.3242548  0.6556068  0.7017267  )
         3           S   tau(   3) = (  0.3242547  0.6556068  0.5310041  )

     number of k points=   452
                       cart. coord. in units 2pi/alat
        k(    1) = (   0.0000000   0.0000000   0.0000000), wk =   0.0022222
        k(    2) = (  -0.0000057   0.0385602   0.0000000), wk =   0.0044444
        k(    3) = (  -0.0000114   0.0771203   0.0000000), wk =   0.0044444
        k(    4) = (  -0.0000171   0.1156805   0.0000000), wk =   0.0044444
        k(    5) = (  -0.0000229   0.1542406   0.0000000), wk =   0.0044444
        k(    6) = (  -0.0000286   0.1928008   0.0000000), wk =   0.0044444
        k(    7) = (  -0.0000343   0.2313609   0.0000000), wk =   0.0044444
        k(    8) = (  -0.0000400   0.2699211   0.0000000), wk =   0.0044444
        k(    9) = (  -0.0000457   0.3084812   0.0000000), wk =   0.0044444
        k(   10) = (  -0.0000514   0.3470414   0.0000000), wk =   0.0044444
        k(   11) = (  -0.0000571   0.3856016   0.0000000), wk =   0.0044444
        k(   12) = (  -0.0000628   0.4241617   0.0000000), wk =   0.0044444
        k(   13) = (  -0.0000686   0.4627219   0.0000000), wk =   0.0044444
        k(   14) = (  -0.0000743   0.5012820   0.0000000), wk =   0.0044444
        k(   15) = (  -0.0000800   0.5398422   0.0000000), wk =   0.0044444
        k(   16) = (   0.0000857  -0.5784023   0.0000000), wk =   0.0022222
        k(   17) = (   0.0333912   0.0578353   0.0000000), wk =   0.0044444
        k(   18) = (   0.0333855   0.0963954   0.0000000), wk =   0.0044444
        k(   19) = (   0.0333798   0.1349556   0.0000000), wk =   0.0044444
        k(   20) = (   0.0333741   0.1735158   0.0000000), wk =   0.0044444
        k(   21) = (   0.0333684   0.2120759   0.0000000), wk =   0.0044444
        k(   22) = (   0.0333627   0.2506361   0.0000000), wk =   0.0044444
        k(   23) = (   0.0333569   0.2891962   0.0000000), wk =   0.0044444
        k(   24) = (   0.0333512   0.3277564   0.0000000), wk =   0.0044444
        k(   25) = (   0.0333455   0.3663165   0.0000000), wk =   0.0044444
        k(   26) = (   0.0333398   0.4048767   0.0000000), wk =   0.0044444
        k(   27) = (   0.0333341   0.4434368   0.0000000), wk =   0.0044444
        k(   28) = (   0.0333284   0.4819970   0.0000000), wk =   0.0044444
        k(   29) = (   0.0333227   0.5205572   0.0000000), wk =   0.0044444
        k(   30) = (   0.0333169   0.5591173   0.0000000), wk =   0.0044444
        k(   31) = (   0.0334826  -0.5591272   0.0000000), wk =   0.0044444
        k(   32) = (   0.0334769  -0.5205670   0.0000000), wk =   0.0044444
        k(   33) = (   0.0334712  -0.4820069   0.0000000), wk =   0.0044444
        k(   34) = (   0.0334655  -0.4434467   0.0000000), wk =   0.0044444
        k(   35) = (   0.0334598  -0.4048866   0.0000000), wk =   0.0044444
        k(   36) = (   0.0334541  -0.3663264   0.0000000), wk =   0.0044444
        k(   37) = (   0.0334484  -0.3277663   0.0000000), wk =   0.0044444
        k(   38) = (   0.0334426  -0.2892061   0.0000000), wk =   0.0044444
        k(   39) = (   0.0334369  -0.2506460   0.0000000), wk =   0.0044444
        k(   40) = (   0.0334312  -0.2120858   0.0000000), wk =   0.0044444
        k(   41) = (   0.0334255  -0.1735256   0.0000000), wk =   0.0044444
        k(   42) = (   0.0334198  -0.1349655   0.0000000), wk =   0.0044444
        k(   43) = (   0.0334141  -0.0964053   0.0000000), wk =   0.0044444
        k(   44) = (   0.0334084  -0.0578452   0.0000000), wk =   0.0044444
        k(   45) = (   0.0334026  -0.0192850   0.0000000), wk =   0.0044444
        k(   46) = (   0.0667824   0.1156706   0.0000000), wk =   0.0044444
        k(   47) = (   0.0667767   0.1542307   0.0000000), wk =   0.0044444
        k(   48) = (   0.0667710   0.1927909   0.0000000), wk =   0.0044444
        k(   49) = (   0.0667653   0.2313510   0.0000000), wk =   0.0044444
        k(   50) = (   0.0667596   0.2699112   0.0000000), wk =   0.0044444
        k(   51) = (   0.0667539   0.3084713   0.0000000), wk =   0.0044444
        k(   52) = (   0.0667482   0.3470315   0.0000000), wk =   0.0044444
        k(   53) = (   0.0667424   0.3855917   0.0000000), wk =   0.0044444
        k(   54) = (   0.0667367   0.4241518   0.0000000), wk =   0.0044444
        k(   55) = (   0.0667310   0.4627120   0.0000000), wk =   0.0044444
        k(   56) = (   0.0667253   0.5012721   0.0000000), wk =   0.0044444
        k(   57) = (   0.0667196   0.5398323   0.0000000), wk =   0.0044444
        k(   58) = (   0.0667139   0.5783924   0.0000000), wk =   0.0044444
        k(   59) = (   0.0668796  -0.5398521   0.0000000), wk =   0.0044444
        k(   60) = (   0.0668739  -0.5012919   0.0000000), wk =   0.0044444
        k(   61) = (   0.0668681  -0.4627318   0.0000000), wk =   0.0044444
        k(   62) = (   0.0668624  -0.4241716   0.0000000), wk =   0.0044444
        k(   63) = (   0.0668567  -0.3856115   0.0000000), wk =   0.0044444
        k(   64) = (   0.0668510  -0.3470513   0.0000000), wk =   0.0044444
        k(   65) = (   0.0668453  -0.3084911   0.0000000), wk =   0.0044444
        k(   66) = (   0.0668396  -0.2699310   0.0000000), wk =   0.0044444
        k(   67) = (   0.0668339  -0.2313708   0.0000000), wk =   0.0044444
        k(   68) = (   0.0668281  -0.1928107   0.0000000), wk =   0.0044444
        k(   69) = (   0.0668224  -0.1542505   0.0000000), wk =   0.0044444
        k(   70) = (   0.0668167  -0.1156904   0.0000000), wk =   0.0044444
        k(   71) = (   0.0668110  -0.0771302   0.0000000), wk =   0.0044444
        k(   72) = (   0.0668053  -0.0385701   0.0000000), wk =   0.0044444
        k(   73) = (   0.1001737   0.1735059   0.0000000), wk =   0.0044444
        k(   74) = (   0.1001680   0.2120660   0.0000000), wk =   0.0044444
        k(   75) = (   0.1001622   0.2506262   0.0000000), wk =   0.0044444
        k(   76) = (   0.1001565   0.2891863   0.0000000), wk =   0.0044444
        k(   77) = (   0.1001508   0.3277465   0.0000000), wk =   0.0044444
        k(   78) = (   0.1001451   0.3663066   0.0000000), wk =   0.0044444
        k(   79) = (   0.1001394   0.4048668   0.0000000), wk =   0.0044444
        k(   80) = (   0.1001337   0.4434269   0.0000000), wk =   0.0044444
        k(   81) = (   0.1001280   0.4819871   0.0000000), wk =   0.0044444
        k(   82) = (   0.1001222   0.5205473   0.0000000), wk =   0.0044444
        k(   83) = (   0.1001165   0.5591074   0.0000000), wk =   0.0044444
        k(   84) = (   0.1001108   0.5976676   0.0000000), wk =   0.0044444
        k(   85) = (   0.1002765  -0.5205769   0.0000000), wk =   0.0044444
        k(   86) = (   0.1002708  -0.4820168   0.0000000), wk =   0.0044444
        k(   87) = (   0.1002651  -0.4434566   0.0000000), wk =   0.0044444
        k(   88) = (   0.1002594  -0.4048965   0.0000000), wk =   0.0044444
        k(   89) = (   0.1002536  -0.3663363   0.0000000), wk =   0.0044444
        k(   90) = (   0.1002479  -0.3277762   0.0000000), wk =   0.0044444
        k(   91) = (   0.1002422  -0.2892160   0.0000000), wk =   0.0044444
        k(   92) = (   0.1002365  -0.2506559   0.0000000), wk =   0.0044444
        k(   93) = (   0.1002308  -0.2120957   0.0000000), wk =   0.0044444
        k(   94) = (   0.1002251  -0.1735355   0.0000000), wk =   0.0044444
        k(   95) = (   0.1002194  -0.1349754   0.0000000), wk =   0.0044444
        k(   96) = (   0.1002137  -0.0964152   0.0000000), wk =   0.0044444
        k(   97) = (   0.1002079  -0.0578551   0.0000000), wk =   0.0044444
        k(   98) = (   0.1335649   0.2313411   0.0000000), wk =   0.0044444
        k(   99) = (   0.1335592   0.2699013   0.0000000), wk =   0.0044444
        k(  100) = (   0.1335535   0.3084615   0.0000000), wk =   0.0044444
        k(  101) = (   0.1335477   0.3470216   0.0000000), wk =   0.0044444
        k(  102) = (   0.1335420   0.3855818   0.0000000), wk =   0.0044444
        k(  103) = (   0.1335363   0.4241419   0.0000000), wk =   0.0044444
        k(  104) = (   0.1335306   0.4627021   0.0000000), wk =   0.0044444
        k(  105) = (   0.1335249   0.5012622   0.0000000), wk =   0.0044444
        k(  106) = (   0.1335192   0.5398224   0.0000000), wk =   0.0044444
        k(  107) = (   0.1335135   0.5783825   0.0000000), wk =   0.0044444
        k(  108) = (   0.1335078   0.6169427   0.0000000), wk =   0.0044444
        k(  109) = (   0.1336734  -0.5013018   0.0000000), wk =   0.0044444
        k(  110) = (   0.1336677  -0.4627417   0.0000000), wk =   0.0044444
        k(  111) = (   0.1336620  -0.4241815   0.0000000), wk =   0.0044444
        k(  112) = (   0.1336563  -0.3856213   0.0000000), wk =   0.0044444
        k(  113) = (   0.1336506  -0.3470612   0.0000000), wk =   0.0044444
        k(  114) = (   0.1336449  -0.3085010   0.0000000), wk =   0.0044444
        k(  115) = (   0.1336392  -0.2699409   0.0000000), wk =   0.0044444
        k(  116) = (   0.1336334  -0.2313807   0.0000000), wk =   0.0044444
        k(  117) = (   0.1336277  -0.1928206   0.0000000), wk =   0.0044444
        k(  118) = (   0.1336220  -0.1542604   0.0000000), wk =   0.0044444
        k(  119) = (   0.1336163  -0.1157003   0.0000000), wk =   0.0044444
        k(  120) = (   0.1336106  -0.0771401   0.0000000), wk =   0.0044444
        k(  121) = (   0.1669561   0.2891764   0.0000000), wk =   0.0044444
        k(  122) = (   0.1669504   0.3277366   0.0000000), wk =   0.0044444
        k(  123) = (   0.1669447   0.3662967   0.0000000), wk =   0.0044444
        k(  124) = (   0.1669390   0.4048569   0.0000000), wk =   0.0044444
        k(  125) = (   0.1669333   0.4434171   0.0000000), wk =   0.0044444
        k(  126) = (   0.1669275   0.4819772   0.0000000), wk =   0.0044444
        k(  127) = (   0.1669218   0.5205374   0.0000000), wk =   0.0044444
        k(  128) = (   0.1669161   0.5590975   0.0000000), wk =   0.0044444
        k(  129) = (   0.1669104   0.5976577   0.0000000), wk =   0.0044444
        k(  130) = (   0.1669047   0.6362178   0.0000000), wk =   0.0044444
        k(  131) = (   0.1670704  -0.4820267   0.0000000), wk =   0.0044444
        k(  132) = (   0.1670647  -0.4434665   0.0000000), wk =   0.0044444
        k(  133) = (   0.1670589  -0.4049064   0.0000000), wk =   0.0044444
        k(  134) = (   0.1670532  -0.3663462   0.0000000), wk =   0.0044444
        k(  135) = (   0.1670475  -0.3277861   0.0000000), wk =   0.0044444
        k(  136) = (   0.1670418  -0.2892259   0.0000000), wk =   0.0044444
        k(  137) = (   0.1670361  -0.2506657   0.0000000), wk =   0.0044444
        k(  138) = (   0.1670304  -0.2121056   0.0000000), wk =   0.0044444
        k(  139) = (   0.1670247  -0.1735454   0.0000000), wk =   0.0044444
        k(  140) = (   0.1670190  -0.1349853   0.0000000), wk =   0.0044444
        k(  141) = (   0.1670132  -0.0964251   0.0000000), wk =   0.0044444
        k(  142) = (   0.2003473   0.3470117   0.0000000), wk =   0.0044444
        k(  143) = (   0.2003416   0.3855719   0.0000000), wk =   0.0044444
        k(  144) = (   0.2003359   0.4241320   0.0000000), wk =   0.0044444
        k(  145) = (   0.2003302   0.4626922   0.0000000), wk =   0.0044444
        k(  146) = (   0.2003245   0.5012523   0.0000000), wk =   0.0044444
        k(  147) = (   0.2003188   0.5398125   0.0000000), wk =   0.0044444
        k(  148) = (   0.2003130   0.5783726   0.0000000), wk =   0.0044444
        k(  149) = (   0.2003073   0.6169328   0.0000000), wk =   0.0044444
        k(  150) = (   0.2003016   0.6554930   0.0000000), wk =   0.0044444
        k(  151) = (   0.2004673  -0.4627516   0.0000000), wk =   0.0044444
        k(  152) = (   0.2004616  -0.4241914   0.0000000), wk =   0.0044444
        k(  153) = (   0.2004559  -0.3856312   0.0000000), wk =   0.0044444
        k(  154) = (   0.2004502  -0.3470711   0.0000000), wk =   0.0044444
        k(  155) = (   0.2004445  -0.3085109   0.0000000), wk =   0.0044444
        k(  156) = (   0.2004387  -0.2699508   0.0000000), wk =   0.0044444
        k(  157) = (   0.2004330  -0.2313906   0.0000000), wk =   0.0044444
        k(  158) = (   0.2004273  -0.1928305   0.0000000), wk =   0.0044444
        k(  159) = (   0.2004216  -0.1542703   0.0000000), wk =   0.0044444
        k(  160) = (   0.2004159  -0.1157102   0.0000000), wk =   0.0044444
        k(  161) = (   0.2337385   0.4048470   0.0000000), wk =   0.0044444
        k(  162) = (   0.2337328   0.4434072   0.0000000), wk =   0.0044444
        k(  163) = (   0.2337271   0.4819673   0.0000000), wk =   0.0044444
        k(  164) = (   0.2337214   0.5205275   0.0000000), wk =   0.0044444
        k(  165) = (   0.2337157   0.5590876   0.0000000), wk =   0.0044444
        k(  166) = (   0.2337100   0.5976478   0.0000000), wk =   0.0044444
        k(  167) = (   0.2337043   0.6362079   0.0000000), wk =   0.0044444
        k(  168) = (   0.2336986   0.6747681   0.0000000), wk =   0.0044444
        k(  169) = (   0.2338642  -0.4434764   0.0000000), wk =   0.0044444
        k(  170) = (   0.2338585  -0.4049163   0.0000000), wk =   0.0044444
        k(  171) = (   0.2338528  -0.3663561   0.0000000), wk =   0.0044444
        k(  172) = (   0.2338471  -0.3277960   0.0000000), wk =   0.0044444
        k(  173) = (   0.2338414  -0.2892358   0.0000000), wk =   0.0044444
        k(  174) = (   0.2338357  -0.2506756   0.0000000), wk =   0.0044444
        k(  175) = (   0.2338300  -0.2121155   0.0000000), wk =   0.0044444
        k(  176) = (   0.2338242  -0.1735553   0.0000000), wk =   0.0044444
        k(  177) = (   0.2338185  -0.1349952   0.0000000), wk =   0.0044444
        k(  178) = (   0.2671298   0.4626823   0.0000000), wk =   0.0044444
        k(  179) = (   0.2671241   0.5012424   0.0000000), wk =   0.0044444
        k(  180) = (   0.2671183   0.5398026   0.0000000), wk =   0.0044444
        k(  181) = (   0.2671126   0.5783628   0.0000000), wk =   0.0044444
        k(  182) = (   0.2671069   0.6169229   0.0000000), wk =   0.0044444
        k(  183) = (   0.2671012   0.6554831   0.0000000), wk =   0.0044444
        k(  184) = (   0.2670955   0.6940432   0.0000000), wk =   0.0044444
        k(  185) = (   0.2672612  -0.4242013   0.0000000), wk =   0.0044444
        k(  186) = (   0.2672555  -0.3856411   0.0000000), wk =   0.0044444
        k(  187) = (   0.2672497  -0.3470810   0.0000000), wk =   0.0044444
        k(  188) = (   0.2672440  -0.3085208   0.0000000), wk =   0.0044444
        k(  189) = (   0.2672383  -0.2699607   0.0000000), wk =   0.0044444
        k(  190) = (   0.2672326  -0.2314005   0.0000000), wk =   0.0044444
        k(  191) = (   0.2672269  -0.1928404   0.0000000), wk =   0.0044444
        k(  192) = (   0.2672212  -0.1542802   0.0000000), wk =   0.0044444
        k(  193) = (   0.3005210   0.5205176   0.0000000), wk =   0.0044444
        k(  194) = (   0.3005153   0.5590777   0.0000000), wk =   0.0044444
        k(  195) = (   0.3005096   0.5976379   0.0000000), wk =   0.0044444
        k(  196) = (   0.3005039   0.6361980   0.0000000), wk =   0.0044444
        k(  197) = (   0.3004981   0.6747582   0.0000000), wk =   0.0044444
        k(  198) = (   0.3004924   0.7133183   0.0000000), wk =   0.0044444
        k(  199) = (   0.3006581  -0.4049262   0.0000000), wk =   0.0044444
        k(  200) = (   0.3006524  -0.3663660   0.0000000), wk =   0.0044444
        k(  201) = (   0.3006467  -0.3278059   0.0000000), wk =   0.0044444
        k(  202) = (   0.3006410  -0.2892457   0.0000000), wk =   0.0044444
        k(  203) = (   0.3006353  -0.2506855   0.0000000), wk =   0.0044444
        k(  204) = (   0.3006295  -0.2121254   0.0000000), wk =   0.0044444
        k(  205) = (   0.3006238  -0.1735652   0.0000000), wk =   0.0044444
        k(  206) = (   0.3339122   0.5783529   0.0000000), wk =   0.0044444
        k(  207) = (   0.3339065   0.6169130   0.0000000), wk =   0.0044444
        k(  208) = (   0.3339008   0.6554732   0.0000000), wk =   0.0044444
        k(  209) = (   0.3338951   0.6940333   0.0000000), wk =   0.0044444
        k(  210) = (   0.3338894   0.7325935   0.0000000), wk =   0.0044444
        k(  211) = (   0.3340550  -0.3856510   0.0000000), wk =   0.0044444
        k(  212) = (   0.3340493  -0.3470909   0.0000000), wk =   0.0044444
        k(  213) = (   0.3340436  -0.3085307   0.0000000), wk =   0.0044444
        k(  214) = (   0.3340379  -0.2699706   0.0000000), wk =   0.0044444
        k(  215) = (   0.3340322  -0.2314104   0.0000000), wk =   0.0044444
        k(  216) = (   0.3340265  -0.1928503   0.0000000), wk =   0.0044444
        k(  217) = (   0.3673034   0.6361881   0.0000000), wk =   0.0044444
        k(  218) = (   0.3672977   0.6747483   0.0000000), wk =   0.0044444
        k(  219) = (   0.3672920   0.7133085   0.0000000), wk =   0.0044444
        k(  220) = (   0.3672863   0.7518686   0.0000000), wk =   0.0044444
        k(  221) = (   0.3674520  -0.3663759   0.0000000), wk =   0.0044444
        k(  222) = (   0.3674463  -0.3278157   0.0000000), wk =   0.0044444
        k(  223) = (   0.3674405  -0.2892556   0.0000000), wk =   0.0044444
        k(  224) = (   0.3674348  -0.2506954   0.0000000), wk =   0.0044444
        k(  225) = (   0.3674291  -0.2121353   0.0000000), wk =   0.0044444
        k(  226) = (   0.4006947   0.6940234   0.0000000), wk =   0.0044444
        k(  227) = (   0.4006889   0.7325836   0.0000000), wk =   0.0044444
        k(  228) = (   0.4006832   0.7711437   0.0000000), wk =   0.0044444
        k(  229) = (   0.4008489  -0.3471008   0.0000000), wk =   0.0044444
        k(  230) = (   0.4008432  -0.3085406   0.0000000), wk =   0.0044444
        k(  231) = (   0.4008375  -0.2699805   0.0000000), wk =   0.0044444
        k(  232) = (   0.4008318  -0.2314203   0.0000000), wk =   0.0044444
        k(  233) = (   0.4340859   0.7518587   0.0000000), wk =   0.0044444
        k(  234) = (   0.4340802   0.7904189   0.0000000), wk =   0.0044444
        k(  235) = (   0.4342458  -0.3278256   0.0000000), wk =   0.0044444
        k(  236) = (   0.4342401  -0.2892655   0.0000000), wk =   0.0044444
        k(  237) = (   0.4342344  -0.2507053   0.0000000), wk =   0.0044444
        k(  238) = (   0.4674771   0.8096940   0.0000000), wk =   0.0044444
        k(  239) = (   0.4676428  -0.3085505   0.0000000), wk =   0.0044444
        k(  240) = (   0.4676371  -0.2699904   0.0000000), wk =   0.0044444
        k(  241) = (  -0.5008683  -0.8675293   0.0000000), wk =   0.0022222
        k(  242) = (  -0.0333969  -0.0192751   0.0000000), wk =   0.0044444
        k(  243) = (  -0.0667939  -0.0385503   0.0000000), wk =   0.0044444
        k(  244) = (  -0.1001908  -0.0578254   0.0000000), wk =   0.0044444
        k(  245) = (  -0.1335877  -0.0771005   0.0000000), wk =   0.0044444
        k(  246) = (  -0.1669847  -0.0963757   0.0000000), wk =   0.0044444
        k(  247) = (  -0.2003816  -0.1156508   0.0000000), wk =   0.0044444
        k(  248) = (  -0.2337785  -0.1349259   0.0000000), wk =   0.0044444
        k(  249) = (  -0.2671755  -0.1542010   0.0000000), wk =   0.0044444
        k(  250) = (  -0.3005724  -0.1734762   0.0000000), wk =   0.0044444
        k(  251) = (  -0.3339693  -0.1927513   0.0000000), wk =   0.0044444
        k(  252) = (  -0.3673663  -0.2120264   0.0000000), wk =   0.0044444
        k(  253) = (  -0.4007632  -0.2313016   0.0000000), wk =   0.0044444
        k(  254) = (  -0.4341601  -0.2505767   0.0000000), wk =   0.0044444
        k(  255) = (  -0.4675571  -0.2698518   0.0000000), wk =   0.0044444
        k(  256) = (   0.5009540   0.2891270   0.0000000), wk =   0.0022222
        k(  257) = (  -0.0667882  -0.0771104   0.0000000), wk =   0.0044444
        k(  258) = (  -0.1001851  -0.0963855   0.0000000), wk =   0.0044444
        k(  259) = (  -0.1335820  -0.1156607   0.0000000), wk =   0.0044444
        k(  260) = (  -0.1669790  -0.1349358   0.0000000), wk =   0.0044444
        k(  261) = (  -0.2003759  -0.1542109   0.0000000), wk =   0.0044444
        k(  262) = (  -0.2337728  -0.1734861   0.0000000), wk =   0.0044444
        k(  263) = (  -0.2671698  -0.1927612   0.0000000), wk =   0.0044444
        k(  264) = (  -0.3005667  -0.2120363   0.0000000), wk =   0.0044444
        k(  265) = (  -0.3339636  -0.2313115   0.0000000), wk =   0.0044444
        k(  266) = (  -0.3673606  -0.2505866   0.0000000), wk =   0.0044444
        k(  267) = (  -0.4007575  -0.2698617   0.0000000), wk =   0.0044444
        k(  268) = (  -0.4341544  -0.2891368   0.0000000), wk =   0.0044444
        k(  269) = (  -0.4675514  -0.3084120   0.0000000), wk =   0.0044444
        k(  270) = (   0.5009597   0.2505668   0.0000000), wk =   0.0044444
        k(  271) = (   0.4675628   0.2312917   0.0000000), wk =   0.0044444
        k(  272) = (   0.4341659   0.2120165   0.0000000), wk =   0.0044444
        k(  273) = (   0.4007689   0.1927414   0.0000000), wk =   0.0044444
        k(  274) = (   0.3673720   0.1734663   0.0000000), wk =   0.0044444
        k(  275) = (   0.3339751   0.1541911   0.0000000), wk =   0.0044444
        k(  276) = (   0.3005781   0.1349160   0.0000000), wk =   0.0044444
        k(  277) = (   0.2671812   0.1156409   0.0000000), wk =   0.0044444
        k(  278) = (   0.2337843   0.0963658   0.0000000), wk =   0.0044444
        k(  279) = (   0.2003873   0.0770906   0.0000000), wk =   0.0044444
        k(  280) = (   0.1669904   0.0578155   0.0000000), wk =   0.0044444
        k(  281) = (   0.1335935   0.0385404   0.0000000), wk =   0.0044444
        k(  282) = (   0.1001965   0.0192652   0.0000000), wk =   0.0044444
        k(  283) = (   0.0667996  -0.0000099   0.0000000), wk =   0.0044444
        k(  284) = (  -0.1001794  -0.1349457   0.0000000), wk =   0.0044444
        k(  285) = (  -0.1335763  -0.1542208   0.0000000), wk =   0.0044444
        k(  286) = (  -0.1669732  -0.1734960   0.0000000), wk =   0.0044444
        k(  287) = (  -0.2003702  -0.1927711   0.0000000), wk =   0.0044444
        k(  288) = (  -0.2337671  -0.2120462   0.0000000), wk =   0.0044444
        k(  289) = (  -0.2671640  -0.2313214   0.0000000), wk =   0.0044444
        k(  290) = (  -0.3005610  -0.2505965   0.0000000), wk =   0.0044444
        k(  291) = (  -0.3339579  -0.2698716   0.0000000), wk =   0.0044444
        k(  292) = (  -0.3673549  -0.2891467   0.0000000), wk =   0.0044444
        k(  293) = (  -0.4007518  -0.3084219   0.0000000), wk =   0.0044444
        k(  294) = (  -0.4341487  -0.3276970   0.0000000), wk =   0.0044444
        k(  295) = (  -0.4675457  -0.3469721   0.0000000), wk =   0.0044444
        k(  296) = (   0.5009654   0.2120066   0.0000000), wk =   0.0044444
        k(  297) = (   0.4675685   0.1927315   0.0000000), wk =   0.0044444
        k(  298) = (   0.4341716   0.1734564   0.0000000), wk =   0.0044444
        k(  299) = (   0.4007746   0.1541813   0.0000000), wk =   0.0044444
        k(  300) = (   0.3673777   0.1349061   0.0000000), wk =   0.0044444
        k(  301) = (   0.3339808   0.1156310   0.0000000), wk =   0.0044444
        k(  302) = (   0.3005838   0.0963559   0.0000000), wk =   0.0044444
        k(  303) = (   0.2671869   0.0770807   0.0000000), wk =   0.0044444
        k(  304) = (   0.2337900   0.0578056   0.0000000), wk =   0.0044444
        k(  305) = (   0.2003930   0.0385305   0.0000000), wk =   0.0044444
        k(  306) = (   0.1669961   0.0192553   0.0000000), wk =   0.0044444
        k(  307) = (   0.1335992  -0.0000198   0.0000000), wk =   0.0044444
        k(  308) = (   0.1002022  -0.0192949   0.0000000), wk =   0.0044444
        k(  309) = (  -0.1335706  -0.1927810   0.0000000), wk =   0.0044444
        k(  310) = (  -0.1669675  -0.2120561   0.0000000), wk =   0.0044444
        k(  311) = (  -0.2003645  -0.2313312   0.0000000), wk =   0.0044444
        k(  312) = (  -0.2337614  -0.2506064   0.0000000), wk =   0.0044444
        k(  313) = (  -0.2671583  -0.2698815   0.0000000), wk =   0.0044444
        k(  314) = (  -0.3005553  -0.2891566   0.0000000), wk =   0.0044444
        k(  315) = (  -0.3339522  -0.3084318   0.0000000), wk =   0.0044444
        k(  316) = (  -0.3673491  -0.3277069   0.0000000), wk =   0.0044444
        k(  317) = (  -0.4007461  -0.3469820   0.0000000), wk =   0.0044444
        k(  318) = (  -0.4341430  -0.3662572   0.0000000), wk =   0.0044444
        k(  319) = (  -0.4675399  -0.3855323   0.0000000), wk =   0.0044444
        k(  320) = (   0.5009712   0.1734465   0.0000000), wk =   0.0044444
        k(  321) = (   0.4675742   0.1541714   0.0000000), wk =   0.0044444
        k(  322) = (   0.4341773   0.1348962   0.0000000), wk =   0.0044444
        k(  323) = (   0.4007804   0.1156211   0.0000000), wk =   0.0044444
        k(  324) = (   0.3673834   0.0963460   0.0000000), wk =   0.0044444
        k(  325) = (   0.3339865   0.0770708   0.0000000), wk =   0.0044444
        k(  326) = (   0.3005895   0.0577957   0.0000000), wk =   0.0044444
        k(  327) = (   0.2671926   0.0385206   0.0000000), wk =   0.0044444
        k(  328) = (   0.2337957   0.0192454   0.0000000), wk =   0.0044444
        k(  329) = (   0.2003987  -0.0000297   0.0000000), wk =   0.0044444
        k(  330) = (   0.1670018  -0.0193048   0.0000000), wk =   0.0044444
        k(  331) = (   0.1336049  -0.0385799   0.0000000), wk =   0.0044444
        k(  332) = (  -0.1669618  -0.2506163   0.0000000), wk =   0.0044444
        k(  333) = (  -0.2003588  -0.2698914   0.0000000), wk =   0.0044444
        k(  334) = (  -0.2337557  -0.2891665   0.0000000), wk =   0.0044444
        k(  335) = (  -0.2671526  -0.3084417   0.0000000), wk =   0.0044444
        k(  336) = (  -0.3005496  -0.3277168   0.0000000), wk =   0.0044444
        k(  337) = (  -0.3339465  -0.3469919   0.0000000), wk =   0.0044444
        k(  338) = (  -0.3673434  -0.3662671   0.0000000), wk =   0.0044444
        k(  339) = (  -0.4007404  -0.3855422   0.0000000), wk =   0.0044444
        k(  340) = (  -0.4341373  -0.4048173   0.0000000), wk =   0.0044444
        k(  341) = (  -0.4675342  -0.4240924   0.0000000), wk =   0.0044444
        k(  342) = (   0.5009769   0.1348863   0.0000000), wk =   0.0044444
        k(  343) = (   0.4675799   0.1156112   0.0000000), wk =   0.0044444
        k(  344) = (   0.4341830   0.0963361   0.0000000), wk =   0.0044444
        k(  345) = (   0.4007861   0.0770609   0.0000000), wk =   0.0044444
        k(  346) = (   0.3673891   0.0577858   0.0000000), wk =   0.0044444
        k(  347) = (   0.3339922   0.0385107   0.0000000), wk =   0.0044444
        k(  348) = (   0.3005953   0.0192355   0.0000000), wk =   0.0044444
        k(  349) = (   0.2671983  -0.0000396   0.0000000), wk =   0.0044444
        k(  350) = (   0.2338014  -0.0193147   0.0000000), wk =   0.0044444
        k(  351) = (   0.2004045  -0.0385898   0.0000000), wk =   0.0044444
        k(  352) = (   0.1670075  -0.0578650   0.0000000), wk =   0.0044444
        k(  353) = (  -0.2003530  -0.3084516   0.0000000), wk =   0.0044444
        k(  354) = (  -0.2337500  -0.3277267   0.0000000), wk =   0.0044444
        k(  355) = (  -0.2671469  -0.3470018   0.0000000), wk =   0.0044444
        k(  356) = (  -0.3005438  -0.3662769   0.0000000), wk =   0.0044444
        k(  357) = (  -0.3339408  -0.3855521   0.0000000), wk =   0.0044444
        k(  358) = (  -0.3673377  -0.4048272   0.0000000), wk =   0.0044444
        k(  359) = (  -0.4007346  -0.4241023   0.0000000), wk =   0.0044444
        k(  360) = (  -0.4341316  -0.4433775   0.0000000), wk =   0.0044444
        k(  361) = (  -0.4675285  -0.4626526   0.0000000), wk =   0.0044444
        k(  362) = (   0.5009826   0.0963262   0.0000000), wk =   0.0044444
        k(  363) = (   0.4675856   0.0770510   0.0000000), wk =   0.0044444
        k(  364) = (   0.4341887   0.0577759   0.0000000), wk =   0.0044444
        k(  365) = (   0.4007918   0.0385008   0.0000000), wk =   0.0044444
        k(  366) = (   0.3673948   0.0192257   0.0000000), wk =   0.0044444
        k(  367) = (   0.3339979  -0.0000495   0.0000000), wk =   0.0044444
        k(  368) = (   0.3006010  -0.0193246   0.0000000), wk =   0.0044444
        k(  369) = (   0.2672040  -0.0385997   0.0000000), wk =   0.0044444
        k(  370) = (   0.2338071  -0.0578749   0.0000000), wk =   0.0044444
        k(  371) = (   0.2004102  -0.0771500   0.0000000), wk =   0.0044444
        k(  372) = (  -0.2337443  -0.3662868   0.0000000), wk =   0.0044444
        k(  373) = (  -0.2671412  -0.3855620   0.0000000), wk =   0.0044444
        k(  374) = (  -0.3005381  -0.4048371   0.0000000), wk =   0.0044444
        k(  375) = (  -0.3339351  -0.4241122   0.0000000), wk =   0.0044444
        k(  376) = (  -0.3673320  -0.4433874   0.0000000), wk =   0.0044444
        k(  377) = (  -0.4007289  -0.4626625   0.0000000), wk =   0.0044444
        k(  378) = (  -0.4341259  -0.4819376   0.0000000), wk =   0.0044444
        k(  379) = (  -0.4675228  -0.5012128   0.0000000), wk =   0.0044444
        k(  380) = (   0.5009883   0.0577660   0.0000000), wk =   0.0044444
        k(  381) = (   0.4675914   0.0384909   0.0000000), wk =   0.0044444
        k(  382) = (   0.4341944   0.0192158   0.0000000), wk =   0.0044444
        k(  383) = (   0.4007975  -0.0000594   0.0000000), wk =   0.0044444
        k(  384) = (   0.3674006  -0.0193345   0.0000000), wk =   0.0044444
        k(  385) = (   0.3340036  -0.0386096   0.0000000), wk =   0.0044444
        k(  386) = (   0.3006067  -0.0578848   0.0000000), wk =   0.0044444
        k(  387) = (   0.2672098  -0.0771599   0.0000000), wk =   0.0044444
        k(  388) = (   0.2338128  -0.0964350   0.0000000), wk =   0.0044444
        k(  389) = (  -0.2671355  -0.4241221   0.0000000), wk =   0.0044444
        k(  390) = (  -0.3005324  -0.4433973   0.0000000), wk =   0.0044444
        k(  391) = (  -0.3339294  -0.4626724   0.0000000), wk =   0.0044444
        k(  392) = (  -0.3673263  -0.4819475   0.0000000), wk =   0.0044444
        k(  393) = (  -0.4007232  -0.5012227   0.0000000), wk =   0.0044444
        k(  394) = (  -0.4341202  -0.5204978   0.0000000), wk =   0.0044444
        k(  395) = (  -0.4675171  -0.5397729   0.0000000), wk =   0.0044444
        k(  396) = (   0.5009940   0.0192059   0.0000000), wk =   0.0044444
        k(  397) = (   0.4675971  -0.0000693   0.0000000), wk =   0.0044444
        k(  398) = (   0.4342001  -0.0193444   0.0000000), wk =   0.0044444
        k(  399) = (   0.4008032  -0.0386195   0.0000000), wk =   0.0044444
        k(  400) = (   0.3674063  -0.0578947   0.0000000), wk =   0.0044444
        k(  401) = (   0.3340093  -0.0771698   0.0000000), wk =   0.0044444
        k(  402) = (   0.3006124  -0.0964449   0.0000000), wk =   0.0044444
        k(  403) = (   0.2672155  -0.1157200   0.0000000), wk =   0.0044444
        k(  404) = (  -0.3005267  -0.4819574   0.0000000), wk =   0.0044444
        k(  405) = (  -0.3339236  -0.5012325   0.0000000), wk =   0.0044444
        k(  406) = (  -0.3673206  -0.5205077   0.0000000), wk =   0.0044444
        k(  407) = (  -0.4007175  -0.5397828   0.0000000), wk =   0.0044444
        k(  408) = (  -0.4341144  -0.5590579   0.0000000), wk =   0.0044444
        k(  409) = (  -0.4675114  -0.5783331   0.0000000), wk =   0.0044444
        k(  410) = (   0.5009997  -0.0193543   0.0000000), wk =   0.0044444
        k(  411) = (   0.4676028  -0.0386294   0.0000000), wk =   0.0044444
        k(  412) = (   0.4342059  -0.0579046   0.0000000), wk =   0.0044444
        k(  413) = (   0.4008089  -0.0771797   0.0000000), wk =   0.0044444
        k(  414) = (   0.3674120  -0.0964548   0.0000000), wk =   0.0044444
        k(  415) = (   0.3340150  -0.1157299   0.0000000), wk =   0.0044444
        k(  416) = (   0.3006181  -0.1350051   0.0000000), wk =   0.0044444
        k(  417) = (  -0.3339179  -0.5397927   0.0000000), wk =   0.0044444
        k(  418) = (  -0.3673149  -0.5590678   0.0000000), wk =   0.0044444
        k(  419) = (  -0.4007118  -0.5783430   0.0000000), wk =   0.0044444
        k(  420) = (  -0.4341087  -0.5976181   0.0000000), wk =   0.0044444
        k(  421) = (  -0.4675057  -0.6168932   0.0000000), wk =   0.0044444
        k(  422) = (   0.5010054  -0.0579144   0.0000000), wk =   0.0044444
        k(  423) = (   0.4676085  -0.0771896   0.0000000), wk =   0.0044444
        k(  424) = (   0.4342116  -0.0964647   0.0000000), wk =   0.0044444
        k(  425) = (   0.4008146  -0.1157398   0.0000000), wk =   0.0044444
        k(  426) = (   0.3674177  -0.1350150   0.0000000), wk =   0.0044444
        k(  427) = (   0.3340208  -0.1542901   0.0000000), wk =   0.0044444
        k(  428) = (  -0.3673091  -0.5976280   0.0000000), wk =   0.0044444
        k(  429) = (  -0.4007061  -0.6169031   0.0000000), wk =   0.0044444
        k(  430) = (  -0.4341030  -0.6361782   0.0000000), wk =   0.0044444
        k(  431) = (  -0.4674999  -0.6554534   0.0000000), wk =   0.0044444
        k(  432) = (   0.5010111  -0.0964746   0.0000000), wk =   0.0044444
        k(  433) = (   0.4676142  -0.1157497   0.0000000), wk =   0.0044444
        k(  434) = (   0.4342173  -0.1350249   0.0000000), wk =   0.0044444
        k(  435) = (   0.4008203  -0.1543000   0.0000000), wk =   0.0044444
        k(  436) = (   0.3674234  -0.1735751   0.0000000), wk =   0.0044444
        k(  437) = (  -0.4007004  -0.6554633   0.0000000), wk =   0.0044444
        k(  438) = (  -0.4340973  -0.6747384   0.0000000), wk =   0.0044444
        k(  439) = (  -0.4674942  -0.6940135   0.0000000), wk =   0.0044444
        k(  440) = (   0.5010169  -0.1350348   0.0000000), wk =   0.0044444
        k(  441) = (   0.4676199  -0.1543099   0.0000000), wk =   0.0044444
        k(  442) = (   0.4342230  -0.1735850   0.0000000), wk =   0.0044444
        k(  443) = (   0.4008261  -0.1928601   0.0000000), wk =   0.0044444
        k(  444) = (  -0.4340916  -0.7132986   0.0000000), wk =   0.0044444
        k(  445) = (  -0.4674885  -0.7325737   0.0000000), wk =   0.0044444
        k(  446) = (   0.5010226  -0.1735949   0.0000000), wk =   0.0044444
        k(  447) = (   0.4676256  -0.1928700   0.0000000), wk =   0.0044444
        k(  448) = (   0.4342287  -0.2121452   0.0000000), wk =   0.0044444
        k(  449) = (  -0.4674828  -0.7711338   0.0000000), wk =   0.0044444
        k(  450) = (   0.5010283  -0.2121551   0.0000000), wk =   0.0044444
        k(  451) = (   0.4676314  -0.2314302   0.0000000), wk =   0.0044444
        k(  452) = (   0.5010340  -0.2507152   0.0000000), wk =   0.0044444

                       cryst. coord.
        k(    1) = (   0.0000000   0.0000000   0.0000000), wk =   0.0022222
        k(    2) = (   0.0000000   0.0333333   0.0000000), wk =   0.0044444
        k(    3) = (   0.0000000   0.0666667   0.0000000), wk =   0.0044444
        k(    4) = (   0.0000000   0.1000000   0.0000000), wk =   0.0044444
        k(    5) = (   0.0000000   0.1333333   0.0000000), wk =   0.0044444
        k(    6) = (   0.0000000   0.1666667   0.0000000), wk =   0.0044444
        k(    7) = (   0.0000000   0.2000000   0.0000000), wk =   0.0044444
        k(    8) = (   0.0000000   0.2333333   0.0000000), wk =   0.0044444
        k(    9) = (   0.0000000   0.2666667   0.0000000), wk =   0.0044444
        k(   10) = (   0.0000000   0.3000000   0.0000000), wk =   0.0044444
        k(   11) = (   0.0000000   0.3333333   0.0000000), wk =   0.0044444
        k(   12) = (   0.0000000   0.3666667   0.0000000), wk =   0.0044444
        k(   13) = (   0.0000000   0.4000000   0.0000000), wk =   0.0044444
        k(   14) = (   0.0000000   0.4333333   0.0000000), wk =   0.0044444
        k(   15) = (   0.0000000   0.4666667   0.0000000), wk =   0.0044444
        k(   16) = (   0.0000000  -0.5000000   0.0000000), wk =   0.0022222
        k(   17) = (   0.0333333   0.0333333   0.0000000), wk =   0.0044444
        k(   18) = (   0.0333333   0.0666667   0.0000000), wk =   0.0044444
        k(   19) = (   0.0333333   0.1000000   0.0000000), wk =   0.0044444
        k(   20) = (   0.0333333   0.1333333   0.0000000), wk =   0.0044444
        k(   21) = (   0.0333333   0.1666667   0.0000000), wk =   0.0044444
        k(   22) = (   0.0333333   0.2000000   0.0000000), wk =   0.0044444
        k(   23) = (   0.0333333   0.2333333   0.0000000), wk =   0.0044444
        k(   24) = (   0.0333333   0.2666667   0.0000000), wk =   0.0044444
        k(   25) = (   0.0333333   0.3000000   0.0000000), wk =   0.0044444
        k(   26) = (   0.0333333   0.3333333   0.0000000), wk =   0.0044444
        k(   27) = (   0.0333333   0.3666667   0.0000000), wk =   0.0044444
        k(   28) = (   0.0333333   0.4000000   0.0000000), wk =   0.0044444
        k(   29) = (   0.0333333   0.4333333   0.0000000), wk =   0.0044444
        k(   30) = (   0.0333333   0.4666667   0.0000000), wk =   0.0044444
        k(   31) = (   0.0333333  -0.5000000   0.0000000), wk =   0.0044444
        k(   32) = (   0.0333333  -0.4666667   0.0000000), wk =   0.0044444
        k(   33) = (   0.0333333  -0.4333333   0.0000000), wk =   0.0044444
        k(   34) = (   0.0333333  -0.4000000   0.0000000), wk =   0.0044444
        k(   35) = (   0.0333333  -0.3666667   0.0000000), wk =   0.0044444
        k(   36) = (   0.0333333  -0.3333333   0.0000000), wk =   0.0044444
        k(   37) = (   0.0333333  -0.3000000   0.0000000), wk =   0.0044444
        k(   38) = (   0.0333333  -0.2666667   0.0000000), wk =   0.0044444
        k(   39) = (   0.0333333  -0.2333333   0.0000000), wk =   0.0044444
        k(   40) = (   0.0333333  -0.2000000   0.0000000), wk =   0.0044444
        k(   41) = (   0.0333333  -0.1666667   0.0000000), wk =   0.0044444
        k(   42) = (   0.0333333  -0.1333333   0.0000000), wk =   0.0044444
        k(   43) = (   0.0333333  -0.1000000   0.0000000), wk =   0.0044444
        k(   44) = (   0.0333333  -0.0666667   0.0000000), wk =   0.0044444
        k(   45) = (   0.0333333  -0.0333333   0.0000000), wk =   0.0044444
        k(   46) = (   0.0666667   0.0666667   0.0000000), wk =   0.0044444
        k(   47) = (   0.0666667   0.1000000   0.0000000), wk =   0.0044444
        k(   48) = (   0.0666667   0.1333333   0.0000000), wk =   0.0044444
        k(   49) = (   0.0666667   0.1666667   0.0000000), wk =   0.0044444
        k(   50) = (   0.0666667   0.2000000   0.0000000), wk =   0.0044444
        k(   51) = (   0.0666667   0.2333333   0.0000000), wk =   0.0044444
        k(   52) = (   0.0666667   0.2666667   0.0000000), wk =   0.0044444
        k(   53) = (   0.0666667   0.3000000   0.0000000), wk =   0.0044444
        k(   54) = (   0.0666667   0.3333333   0.0000000), wk =   0.0044444
        k(   55) = (   0.0666667   0.3666667   0.0000000), wk =   0.0044444
        k(   56) = (   0.0666667   0.4000000   0.0000000), wk =   0.0044444
        k(   57) = (   0.0666667   0.4333333   0.0000000), wk =   0.0044444
        k(   58) = (   0.0666667   0.4666667   0.0000000), wk =   0.0044444
        k(   59) = (   0.0666667  -0.5000000   0.0000000), wk =   0.0044444
        k(   60) = (   0.0666667  -0.4666667   0.0000000), wk =   0.0044444
        k(   61) = (   0.0666667  -0.4333333   0.0000000), wk =   0.0044444
        k(   62) = (   0.0666667  -0.4000000   0.0000000), wk =   0.0044444
        k(   63) = (   0.0666667  -0.3666667   0.0000000), wk =   0.0044444
        k(   64) = (   0.0666667  -0.3333333   0.0000000), wk =   0.0044444
        k(   65) = (   0.0666667  -0.3000000   0.0000000), wk =   0.0044444
        k(   66) = (   0.0666667  -0.2666667   0.0000000), wk =   0.0044444
        k(   67) = (   0.0666667  -0.2333333   0.0000000), wk =   0.0044444
        k(   68) = (   0.0666667  -0.2000000   0.0000000), wk =   0.0044444
        k(   69) = (   0.0666667  -0.1666667   0.0000000), wk =   0.0044444
        k(   70) = (   0.0666667  -0.1333333   0.0000000), wk =   0.0044444
        k(   71) = (   0.0666667  -0.1000000   0.0000000), wk =   0.0044444
        k(   72) = (   0.0666667  -0.0666667   0.0000000), wk =   0.0044444
        k(   73) = (   0.1000000   0.1000000   0.0000000), wk =   0.0044444
        k(   74) = (   0.1000000   0.1333333   0.0000000), wk =   0.0044444
        k(   75) = (   0.1000000   0.1666667   0.0000000), wk =   0.0044444
        k(   76) = (   0.1000000   0.2000000   0.0000000), wk =   0.0044444
        k(   77) = (   0.1000000   0.2333333   0.0000000), wk =   0.0044444
        k(   78) = (   0.1000000   0.2666667   0.0000000), wk =   0.0044444
        k(   79) = (   0.1000000   0.3000000   0.0000000), wk =   0.0044444
        k(   80) = (   0.1000000   0.3333333   0.0000000), wk =   0.0044444
        k(   81) = (   0.1000000   0.3666667   0.0000000), wk =   0.0044444
        k(   82) = (   0.1000000   0.4000000   0.0000000), wk =   0.0044444
        k(   83) = (   0.1000000   0.4333333   0.0000000), wk =   0.0044444
        k(   84) = (   0.1000000   0.4666667   0.0000000), wk =   0.0044444
        k(   85) = (   0.1000000  -0.5000000   0.0000000), wk =   0.0044444
        k(   86) = (   0.1000000  -0.4666667   0.0000000), wk =   0.0044444
        k(   87) = (   0.1000000  -0.4333333   0.0000000), wk =   0.0044444
        k(   88) = (   0.1000000  -0.4000000   0.0000000), wk =   0.0044444
        k(   89) = (   0.1000000  -0.3666667   0.0000000), wk =   0.0044444
        k(   90) = (   0.1000000  -0.3333333   0.0000000), wk =   0.0044444
        k(   91) = (   0.1000000  -0.3000000   0.0000000), wk =   0.0044444
        k(   92) = (   0.1000000  -0.2666667   0.0000000), wk =   0.0044444
        k(   93) = (   0.1000000  -0.2333333   0.0000000), wk =   0.0044444
        k(   94) = (   0.1000000  -0.2000000   0.0000000), wk =   0.0044444
        k(   95) = (   0.1000000  -0.1666667   0.0000000), wk =   0.0044444
        k(   96) = (   0.1000000  -0.1333333   0.0000000), wk =   0.0044444
        k(   97) = (   0.1000000  -0.1000000   0.0000000), wk =   0.0044444
        k(   98) = (   0.1333333   0.1333333   0.0000000), wk =   0.0044444
        k(   99) = (   0.1333333   0.1666667   0.0000000), wk =   0.0044444
        k(  100) = (   0.1333333   0.2000000   0.0000000), wk =   0.0044444
        k(  101) = (   0.1333333   0.2333333   0.0000000), wk =   0.0044444
        k(  102) = (   0.1333333   0.2666667   0.0000000), wk =   0.0044444
        k(  103) = (   0.1333333   0.3000000   0.0000000), wk =   0.0044444
        k(  104) = (   0.1333333   0.3333333   0.0000000), wk =   0.0044444
        k(  105) = (   0.1333333   0.3666667   0.0000000), wk =   0.0044444
        k(  106) = (   0.1333333   0.4000000   0.0000000), wk =   0.0044444
        k(  107) = (   0.1333333   0.4333333   0.0000000), wk =   0.0044444
        k(  108) = (   0.1333333   0.4666667   0.0000000), wk =   0.0044444
        k(  109) = (   0.1333333  -0.5000000   0.0000000), wk =   0.0044444
        k(  110) = (   0.1333333  -0.4666667   0.0000000), wk =   0.0044444
        k(  111) = (   0.1333333  -0.4333333   0.0000000), wk =   0.0044444
        k(  112) = (   0.1333333  -0.4000000   0.0000000), wk =   0.0044444
        k(  113) = (   0.1333333  -0.3666667   0.0000000), wk =   0.0044444
        k(  114) = (   0.1333333  -0.3333333   0.0000000), wk =   0.0044444
        k(  115) = (   0.1333333  -0.3000000   0.0000000), wk =   0.0044444
        k(  116) = (   0.1333333  -0.2666667   0.0000000), wk =   0.0044444
        k(  117) = (   0.1333333  -0.2333333   0.0000000), wk =   0.0044444
        k(  118) = (   0.1333333  -0.2000000   0.0000000), wk =   0.0044444
        k(  119) = (   0.1333333  -0.1666667   0.0000000), wk =   0.0044444
        k(  120) = (   0.1333333  -0.1333333   0.0000000), wk =   0.0044444
        k(  121) = (   0.1666667   0.1666667   0.0000000), wk =   0.0044444
        k(  122) = (   0.1666667   0.2000000   0.0000000), wk =   0.0044444
        k(  123) = (   0.1666667   0.2333333   0.0000000), wk =   0.0044444
        k(  124) = (   0.1666667   0.2666667   0.0000000), wk =   0.0044444
        k(  125) = (   0.1666667   0.3000000   0.0000000), wk =   0.0044444
        k(  126) = (   0.1666667   0.3333333   0.0000000), wk =   0.0044444
        k(  127) = (   0.1666667   0.3666667   0.0000000), wk =   0.0044444
        k(  128) = (   0.1666667   0.4000000   0.0000000), wk =   0.0044444
        k(  129) = (   0.1666667   0.4333333   0.0000000), wk =   0.0044444
        k(  130) = (   0.1666667   0.4666667   0.0000000), wk =   0.0044444
        k(  131) = (   0.1666667  -0.5000000   0.0000000), wk =   0.0044444
        k(  132) = (   0.1666667  -0.4666667   0.0000000), wk =   0.0044444
        k(  133) = (   0.1666667  -0.4333333   0.0000000), wk =   0.0044444
        k(  134) = (   0.1666667  -0.4000000   0.0000000), wk =   0.0044444
        k(  135) = (   0.1666667  -0.3666667   0.0000000), wk =   0.0044444
        k(  136) = (   0.1666667  -0.3333333   0.0000000), wk =   0.0044444
        k(  137) = (   0.1666667  -0.3000000   0.0000000), wk =   0.0044444
        k(  138) = (   0.1666667  -0.2666667   0.0000000), wk =   0.0044444
        k(  139) = (   0.1666667  -0.2333333   0.0000000), wk =   0.0044444
        k(  140) = (   0.1666667  -0.2000000   0.0000000), wk =   0.0044444
        k(  141) = (   0.1666667  -0.1666667   0.0000000), wk =   0.0044444
        k(  142) = (   0.2000000   0.2000000   0.0000000), wk =   0.0044444
        k(  143) = (   0.2000000   0.2333333   0.0000000), wk =   0.0044444
        k(  144) = (   0.2000000   0.2666667   0.0000000), wk =   0.0044444
        k(  145) = (   0.2000000   0.3000000   0.0000000), wk =   0.0044444
        k(  146) = (   0.2000000   0.3333333   0.0000000), wk =   0.0044444
        k(  147) = (   0.2000000   0.3666667   0.0000000), wk =   0.0044444
        k(  148) = (   0.2000000   0.4000000   0.0000000), wk =   0.0044444
        k(  149) = (   0.2000000   0.4333333   0.0000000), wk =   0.0044444
        k(  150) = (   0.2000000   0.4666667   0.0000000), wk =   0.0044444
        k(  151) = (   0.2000000  -0.5000000   0.0000000), wk =   0.0044444
        k(  152) = (   0.2000000  -0.4666667   0.0000000), wk =   0.0044444
        k(  153) = (   0.2000000  -0.4333333   0.0000000), wk =   0.0044444
        k(  154) = (   0.2000000  -0.4000000   0.0000000), wk =   0.0044444
        k(  155) = (   0.2000000  -0.3666667   0.0000000), wk =   0.0044444
        k(  156) = (   0.2000000  -0.3333333   0.0000000), wk =   0.0044444
        k(  157) = (   0.2000000  -0.3000000   0.0000000), wk =   0.0044444
        k(  158) = (   0.2000000  -0.2666667   0.0000000), wk =   0.0044444
        k(  159) = (   0.2000000  -0.2333333   0.0000000), wk =   0.0044444
        k(  160) = (   0.2000000  -0.2000000   0.0000000), wk =   0.0044444
        k(  161) = (   0.2333333   0.2333333   0.0000000), wk =   0.0044444
        k(  162) = (   0.2333333   0.2666667   0.0000000), wk =   0.0044444
        k(  163) = (   0.2333333   0.3000000   0.0000000), wk =   0.0044444
        k(  164) = (   0.2333333   0.3333333   0.0000000), wk =   0.0044444
        k(  165) = (   0.2333333   0.3666667   0.0000000), wk =   0.0044444
        k(  166) = (   0.2333333   0.4000000   0.0000000), wk =   0.0044444
        k(  167) = (   0.2333333   0.4333333   0.0000000), wk =   0.0044444
        k(  168) = (   0.2333333   0.4666667   0.0000000), wk =   0.0044444
        k(  169) = (   0.2333333  -0.5000000   0.0000000), wk =   0.0044444
        k(  170) = (   0.2333333  -0.4666667   0.0000000), wk =   0.0044444
        k(  171) = (   0.2333333  -0.4333333   0.0000000), wk =   0.0044444
        k(  172) = (   0.2333333  -0.4000000   0.0000000), wk =   0.0044444
        k(  173) = (   0.2333333  -0.3666667   0.0000000), wk =   0.0044444
        k(  174) = (   0.2333333  -0.3333333   0.0000000), wk =   0.0044444
        k(  175) = (   0.2333333  -0.3000000   0.0000000), wk =   0.0044444
        k(  176) = (   0.2333333  -0.2666667   0.0000000), wk =   0.0044444
        k(  177) = (   0.2333333  -0.2333333   0.0000000), wk =   0.0044444
        k(  178) = (   0.2666667   0.2666667   0.0000000), wk =   0.0044444
        k(  179) = (   0.2666667   0.3000000   0.0000000), wk =   0.0044444
        k(  180) = (   0.2666667   0.3333333   0.0000000), wk =   0.0044444
        k(  181) = (   0.2666667   0.3666667   0.0000000), wk =   0.0044444
        k(  182) = (   0.2666667   0.4000000   0.0000000), wk =   0.0044444
        k(  183) = (   0.2666667   0.4333333   0.0000000), wk =   0.0044444
        k(  184) = (   0.2666667   0.4666667   0.0000000), wk =   0.0044444
        k(  185) = (   0.2666667  -0.5000000   0.0000000), wk =   0.0044444
        k(  186) = (   0.2666667  -0.4666667   0.0000000), wk =   0.0044444
        k(  187) = (   0.2666667  -0.4333333   0.0000000), wk =   0.0044444
        k(  188) = (   0.2666667  -0.4000000   0.0000000), wk =   0.0044444
        k(  189) = (   0.2666667  -0.3666667   0.0000000), wk =   0.0044444
        k(  190) = (   0.2666667  -0.3333333   0.0000000), wk =   0.0044444
        k(  191) = (   0.2666667  -0.3000000   0.0000000), wk =   0.0044444
        k(  192) = (   0.2666667  -0.2666667   0.0000000), wk =   0.0044444
        k(  193) = (   0.3000000   0.3000000   0.0000000), wk =   0.0044444
        k(  194) = (   0.3000000   0.3333333   0.0000000), wk =   0.0044444
        k(  195) = (   0.3000000   0.3666667   0.0000000), wk =   0.0044444
        k(  196) = (   0.3000000   0.4000000   0.0000000), wk =   0.0044444
        k(  197) = (   0.3000000   0.4333333   0.0000000), wk =   0.0044444
        k(  198) = (   0.3000000   0.4666667   0.0000000), wk =   0.0044444
        k(  199) = (   0.3000000  -0.5000000   0.0000000), wk =   0.0044444
        k(  200) = (   0.3000000  -0.4666667   0.0000000), wk =   0.0044444
        k(  201) = (   0.3000000  -0.4333333   0.0000000), wk =   0.0044444
        k(  202) = (   0.3000000  -0.4000000   0.0000000), wk =   0.0044444
        k(  203) = (   0.3000000  -0.3666667   0.0000000), wk =   0.0044444
        k(  204) = (   0.3000000  -0.3333333   0.0000000), wk =   0.0044444
        k(  205) = (   0.3000000  -0.3000000   0.0000000), wk =   0.0044444
        k(  206) = (   0.3333333   0.3333333   0.0000000), wk =   0.0044444
        k(  207) = (   0.3333333   0.3666667   0.0000000), wk =   0.0044444
        k(  208) = (   0.3333333   0.4000000   0.0000000), wk =   0.0044444
        k(  209) = (   0.3333333   0.4333333   0.0000000), wk =   0.0044444
        k(  210) = (   0.3333333   0.4666667   0.0000000), wk =   0.0044444
        k(  211) = (   0.3333333  -0.5000000   0.0000000), wk =   0.0044444
        k(  212) = (   0.3333333  -0.4666667   0.0000000), wk =   0.0044444
        k(  213) = (   0.3333333  -0.4333333   0.0000000), wk =   0.0044444
        k(  214) = (   0.3333333  -0.4000000   0.0000000), wk =   0.0044444
        k(  215) = (   0.3333333  -0.3666667   0.0000000), wk =   0.0044444
        k(  216) = (   0.3333333  -0.3333333   0.0000000), wk =   0.0044444
        k(  217) = (   0.3666667   0.3666667   0.0000000), wk =   0.0044444
        k(  218) = (   0.3666667   0.4000000   0.0000000), wk =   0.0044444
        k(  219) = (   0.3666667   0.4333333   0.0000000), wk =   0.0044444
        k(  220) = (   0.3666667   0.4666667   0.0000000), wk =   0.0044444
        k(  221) = (   0.3666667  -0.5000000   0.0000000), wk =   0.0044444
        k(  222) = (   0.3666667  -0.4666667   0.0000000), wk =   0.0044444
        k(  223) = (   0.3666667  -0.4333333   0.0000000), wk =   0.0044444
        k(  224) = (   0.3666667  -0.4000000   0.0000000), wk =   0.0044444
        k(  225) = (   0.3666667  -0.3666667   0.0000000), wk =   0.0044444
        k(  226) = (   0.4000000   0.4000000   0.0000000), wk =   0.0044444
        k(  227) = (   0.4000000   0.4333333   0.0000000), wk =   0.0044444
        k(  228) = (   0.4000000   0.4666667   0.0000000), wk =   0.0044444
        k(  229) = (   0.4000000  -0.5000000   0.0000000), wk =   0.0044444
        k(  230) = (   0.4000000  -0.4666667   0.0000000), wk =   0.0044444
        k(  231) = (   0.4000000  -0.4333333   0.0000000), wk =   0.0044444
        k(  232) = (   0.4000000  -0.4000000   0.0000000), wk =   0.0044444
        k(  233) = (   0.4333333   0.4333333   0.0000000), wk =   0.0044444
        k(  234) = (   0.4333333   0.4666667   0.0000000), wk =   0.0044444
        k(  235) = (   0.4333333  -0.5000000   0.0000000), wk =   0.0044444
        k(  236) = (   0.4333333  -0.4666667   0.0000000), wk =   0.0044444
        k(  237) = (   0.4333333  -0.4333333   0.0000000), wk =   0.0044444
        k(  238) = (   0.4666667   0.4666667   0.0000000), wk =   0.0044444
        k(  239) = (   0.4666667  -0.5000000   0.0000000), wk =   0.0044444
        k(  240) = (   0.4666667  -0.4666667   0.0000000), wk =   0.0044444
        k(  241) = (  -0.5000000  -0.5000000   0.0000000), wk =   0.0022222
        k(  242) = (  -0.0333333  -0.0000000   0.0000000), wk =   0.0044444
        k(  243) = (  -0.0666667  -0.0000000   0.0000000), wk =   0.0044444
        k(  244) = (  -0.1000000  -0.0000000   0.0000000), wk =   0.0044444
        k(  245) = (  -0.1333333  -0.0000000   0.0000000), wk =   0.0044444
        k(  246) = (  -0.1666667  -0.0000000   0.0000000), wk =   0.0044444
        k(  247) = (  -0.2000000  -0.0000000   0.0000000), wk =   0.0044444
        k(  248) = (  -0.2333333  -0.0000000   0.0000000), wk =   0.0044444
        k(  249) = (  -0.2666667  -0.0000000   0.0000000), wk =   0.0044444
        k(  250) = (  -0.3000000  -0.0000000   0.0000000), wk =   0.0044444
        k(  251) = (  -0.3333333  -0.0000000   0.0000000), wk =   0.0044444
        k(  252) = (  -0.3666667  -0.0000000   0.0000000), wk =   0.0044444
        k(  253) = (  -0.4000000  -0.0000000   0.0000000), wk =   0.0044444
        k(  254) = (  -0.4333333  -0.0000000   0.0000000), wk =   0.0044444
        k(  255) = (  -0.4666667  -0.0000000   0.0000000), wk =   0.0044444
        k(  256) = (   0.5000000   0.0000000   0.0000000), wk =   0.0022222
        k(  257) = (  -0.0666667  -0.0333333   0.0000000), wk =   0.0044444
        k(  258) = (  -0.1000000  -0.0333333   0.0000000), wk =   0.0044444
        k(  259) = (  -0.1333333  -0.0333333   0.0000000), wk =   0.0044444
        k(  260) = (  -0.1666667  -0.0333333   0.0000000), wk =   0.0044444
        k(  261) = (  -0.2000000  -0.0333333   0.0000000), wk =   0.0044444
        k(  262) = (  -0.2333333  -0.0333333   0.0000000), wk =   0.0044444
        k(  263) = (  -0.2666667  -0.0333333   0.0000000), wk =   0.0044444
        k(  264) = (  -0.3000000  -0.0333333   0.0000000), wk =   0.0044444
        k(  265) = (  -0.3333333  -0.0333333   0.0000000), wk =   0.0044444
        k(  266) = (  -0.3666667  -0.0333333   0.0000000), wk =   0.0044444
        k(  267) = (  -0.4000000  -0.0333333   0.0000000), wk =   0.0044444
        k(  268) = (  -0.4333333  -0.0333333   0.0000000), wk =   0.0044444
        k(  269) = (  -0.4666667  -0.0333333   0.0000000), wk =   0.0044444
        k(  270) = (   0.5000000  -0.0333333   0.0000000), wk =   0.0044444
        k(  271) = (   0.4666667  -0.0333333   0.0000000), wk =   0.0044444
        k(  272) = (   0.4333333  -0.0333333   0.0000000), wk =   0.0044444
        k(  273) = (   0.4000000  -0.0333333   0.0000000), wk =   0.0044444
        k(  274) = (   0.3666667  -0.0333333   0.0000000), wk =   0.0044444
        k(  275) = (   0.3333333  -0.0333333   0.0000000), wk =   0.0044444
        k(  276) = (   0.3000000  -0.0333333   0.0000000), wk =   0.0044444
        k(  277) = (   0.2666667  -0.0333333   0.0000000), wk =   0.0044444
        k(  278) = (   0.2333333  -0.0333333   0.0000000), wk =   0.0044444
        k(  279) = (   0.2000000  -0.0333333   0.0000000), wk =   0.0044444
        k(  280) = (   0.1666667  -0.0333333   0.0000000), wk =   0.0044444
        k(  281) = (   0.1333333  -0.0333333   0.0000000), wk =   0.0044444
        k(  282) = (   0.1000000  -0.0333333   0.0000000), wk =   0.0044444
        k(  283) = (   0.0666667  -0.0333333   0.0000000), wk =   0.0044444
        k(  284) = (  -0.1000000  -0.0666667   0.0000000), wk =   0.0044444
        k(  285) = (  -0.1333333  -0.0666667   0.0000000), wk =   0.0044444
        k(  286) = (  -0.1666667  -0.0666667   0.0000000), wk =   0.0044444
        k(  287) = (  -0.2000000  -0.0666667   0.0000000), wk =   0.0044444
        k(  288) = (  -0.2333333  -0.0666667   0.0000000), wk =   0.0044444
        k(  289) = (  -0.2666667  -0.0666667   0.0000000), wk =   0.0044444
        k(  290) = (  -0.3000000  -0.0666667   0.0000000), wk =   0.0044444
        k(  291) = (  -0.3333333  -0.0666667   0.0000000), wk =   0.0044444
        k(  292) = (  -0.3666667  -0.0666667   0.0000000), wk =   0.0044444
        k(  293) = (  -0.4000000  -0.0666667   0.0000000), wk =   0.0044444
        k(  294) = (  -0.4333333  -0.0666667   0.0000000), wk =   0.0044444
        k(  295) = (  -0.4666667  -0.0666667   0.0000000), wk =   0.0044444
        k(  296) = (   0.5000000  -0.0666667   0.0000000), wk =   0.0044444
        k(  297) = (   0.4666667  -0.0666667   0.0000000), wk =   0.0044444
        k(  298) = (   0.4333333  -0.0666667   0.0000000), wk =   0.0044444
        k(  299) = (   0.4000000  -0.0666667   0.0000000), wk =   0.0044444
        k(  300) = (   0.3666667  -0.0666667   0.0000000), wk =   0.0044444
        k(  301) = (   0.3333333  -0.0666667   0.0000000), wk =   0.0044444
        k(  302) = (   0.3000000  -0.0666667   0.0000000), wk =   0.0044444
        k(  303) = (   0.2666667  -0.0666667   0.0000000), wk =   0.0044444
        k(  304) = (   0.2333333  -0.0666667   0.0000000), wk =   0.0044444
        k(  305) = (   0.2000000  -0.0666667   0.0000000), wk =   0.0044444
        k(  306) = (   0.1666667  -0.0666667   0.0000000), wk =   0.0044444
        k(  307) = (   0.1333333  -0.0666667   0.0000000), wk =   0.0044444
        k(  308) = (   0.1000000  -0.0666667   0.0000000), wk =   0.0044444
        k(  309) = (  -0.1333333  -0.1000000   0.0000000), wk =   0.0044444
        k(  310) = (  -0.1666667  -0.1000000   0.0000000), wk =   0.0044444
        k(  311) = (  -0.2000000  -0.1000000   0.0000000), wk =   0.0044444
        k(  312) = (  -0.2333333  -0.1000000   0.0000000), wk =   0.0044444
        k(  313) = (  -0.2666667  -0.1000000   0.0000000), wk =   0.0044444
        k(  314) = (  -0.3000000  -0.1000000   0.0000000), wk =   0.0044444
        k(  315) = (  -0.3333333  -0.1000000   0.0000000), wk =   0.0044444
        k(  316) = (  -0.3666667  -0.1000000   0.0000000), wk =   0.0044444
        k(  317) = (  -0.4000000  -0.1000000   0.0000000), wk =   0.0044444
        k(  318) = (  -0.4333333  -0.1000000   0.0000000), wk =   0.0044444
        k(  319) = (  -0.4666667  -0.1000000   0.0000000), wk =   0.0044444
        k(  320) = (   0.5000000  -0.1000000   0.0000000), wk =   0.0044444
        k(  321) = (   0.4666667  -0.1000000   0.0000000), wk =   0.0044444
        k(  322) = (   0.4333333  -0.1000000   0.0000000), wk =   0.0044444
        k(  323) = (   0.4000000  -0.1000000   0.0000000), wk =   0.0044444
        k(  324) = (   0.3666667  -0.1000000   0.0000000), wk =   0.0044444
        k(  325) = (   0.3333333  -0.1000000   0.0000000), wk =   0.0044444
        k(  326) = (   0.3000000  -0.1000000   0.0000000), wk =   0.0044444
        k(  327) = (   0.2666667  -0.1000000   0.0000000), wk =   0.0044444
        k(  328) = (   0.2333333  -0.1000000   0.0000000), wk =   0.0044444
        k(  329) = (   0.2000000  -0.1000000   0.0000000), wk =   0.0044444
        k(  330) = (   0.1666667  -0.1000000   0.0000000), wk =   0.0044444
        k(  331) = (   0.1333333  -0.1000000   0.0000000), wk =   0.0044444
        k(  332) = (  -0.1666667  -0.1333333   0.0000000), wk =   0.0044444
        k(  333) = (  -0.2000000  -0.1333333   0.0000000), wk =   0.0044444
        k(  334) = (  -0.2333333  -0.1333333   0.0000000), wk =   0.0044444
        k(  335) = (  -0.2666667  -0.1333333   0.0000000), wk =   0.0044444
        k(  336) = (  -0.3000000  -0.1333333   0.0000000), wk =   0.0044444
        k(  337) = (  -0.3333333  -0.1333333   0.0000000), wk =   0.0044444
        k(  338) = (  -0.3666667  -0.1333333   0.0000000), wk =   0.0044444
        k(  339) = (  -0.4000000  -0.1333333   0.0000000), wk =   0.0044444
        k(  340) = (  -0.4333333  -0.1333333   0.0000000), wk =   0.0044444
        k(  341) = (  -0.4666667  -0.1333333   0.0000000), wk =   0.0044444
        k(  342) = (   0.5000000  -0.1333333   0.0000000), wk =   0.0044444
        k(  343) = (   0.4666667  -0.1333333   0.0000000), wk =   0.0044444
        k(  344) = (   0.4333333  -0.1333333   0.0000000), wk =   0.0044444
        k(  345) = (   0.4000000  -0.1333333   0.0000000), wk =   0.0044444
        k(  346) = (   0.3666667  -0.1333333   0.0000000), wk =   0.0044444
        k(  347) = (   0.3333333  -0.1333333   0.0000000), wk =   0.0044444
        k(  348) = (   0.3000000  -0.1333333   0.0000000), wk =   0.0044444
        k(  349) = (   0.2666667  -0.1333333   0.0000000), wk =   0.0044444
        k(  350) = (   0.2333333  -0.1333333   0.0000000), wk =   0.0044444
        k(  351) = (   0.2000000  -0.1333333   0.0000000), wk =   0.0044444
        k(  352) = (   0.1666667  -0.1333333   0.0000000), wk =   0.0044444
        k(  353) = (  -0.2000000  -0.1666667   0.0000000), wk =   0.0044444
        k(  354) = (  -0.2333333  -0.1666667   0.0000000), wk =   0.0044444
        k(  355) = (  -0.2666667  -0.1666667   0.0000000), wk =   0.0044444
        k(  356) = (  -0.3000000  -0.1666667   0.0000000), wk =   0.0044444
        k(  357) = (  -0.3333333  -0.1666667   0.0000000), wk =   0.0044444
        k(  358) = (  -0.3666667  -0.1666667   0.0000000), wk =   0.0044444
        k(  359) = (  -0.4000000  -0.1666667   0.0000000), wk =   0.0044444
        k(  360) = (  -0.4333333  -0.1666667   0.0000000), wk =   0.0044444
        k(  361) = (  -0.4666667  -0.1666667   0.0000000), wk =   0.0044444
        k(  362) = (   0.5000000  -0.1666667   0.0000000), wk =   0.0044444
        k(  363) = (   0.4666667  -0.1666667   0.0000000), wk =   0.0044444
        k(  364) = (   0.4333333  -0.1666667   0.0000000), wk =   0.0044444
        k(  365) = (   0.4000000  -0.1666667   0.0000000), wk =   0.0044444
        k(  366) = (   0.3666667  -0.1666667   0.0000000), wk =   0.0044444
        k(  367) = (   0.3333333  -0.1666667   0.0000000), wk =   0.0044444
        k(  368) = (   0.3000000  -0.1666667   0.0000000), wk =   0.0044444
        k(  369) = (   0.2666667  -0.1666667   0.0000000), wk =   0.0044444
        k(  370) = (   0.2333333  -0.1666667   0.0000000), wk =   0.0044444
        k(  371) = (   0.2000000  -0.1666667   0.0000000), wk =   0.0044444
        k(  372) = (  -0.2333333  -0.2000000   0.0000000), wk =   0.0044444
        k(  373) = (  -0.2666667  -0.2000000   0.0000000), wk =   0.0044444
        k(  374) = (  -0.3000000  -0.2000000   0.0000000), wk =   0.0044444
        k(  375) = (  -0.3333333  -0.2000000   0.0000000), wk =   0.0044444
        k(  376) = (  -0.3666667  -0.2000000   0.0000000), wk =   0.0044444
        k(  377) = (  -0.4000000  -0.2000000   0.0000000), wk =   0.0044444
        k(  378) = (  -0.4333333  -0.2000000   0.0000000), wk =   0.0044444
        k(  379) = (  -0.4666667  -0.2000000   0.0000000), wk =   0.0044444
        k(  380) = (   0.5000000  -0.2000000   0.0000000), wk =   0.0044444
        k(  381) = (   0.4666667  -0.2000000   0.0000000), wk =   0.0044444
        k(  382) = (   0.4333333  -0.2000000   0.0000000), wk =   0.0044444
        k(  383) = (   0.4000000  -0.2000000   0.0000000), wk =   0.0044444
        k(  384) = (   0.3666667  -0.2000000   0.0000000), wk =   0.0044444
        k(  385) = (   0.3333333  -0.2000000   0.0000000), wk =   0.0044444
        k(  386) = (   0.3000000  -0.2000000   0.0000000), wk =   0.0044444
        k(  387) = (   0.2666667  -0.2000000   0.0000000), wk =   0.0044444
        k(  388) = (   0.2333333  -0.2000000   0.0000000), wk =   0.0044444
        k(  389) = (  -0.2666667  -0.2333333   0.0000000), wk =   0.0044444
        k(  390) = (  -0.3000000  -0.2333333   0.0000000), wk =   0.0044444
        k(  391) = (  -0.3333333  -0.2333333   0.0000000), wk =   0.0044444
        k(  392) = (  -0.3666667  -0.2333333   0.0000000), wk =   0.0044444
        k(  393) = (  -0.4000000  -0.2333333   0.0000000), wk =   0.0044444
        k(  394) = (  -0.4333333  -0.2333333   0.0000000), wk =   0.0044444
        k(  395) = (  -0.4666667  -0.2333333   0.0000000), wk =   0.0044444
        k(  396) = (   0.5000000  -0.2333333   0.0000000), wk =   0.0044444
        k(  397) = (   0.4666667  -0.2333333   0.0000000), wk =   0.0044444
        k(  398) = (   0.4333333  -0.2333333   0.0000000), wk =   0.0044444
        k(  399) = (   0.4000000  -0.2333333   0.0000000), wk =   0.0044444
        k(  400) = (   0.3666667  -0.2333333   0.0000000), wk =   0.0044444
        k(  401) = (   0.3333333  -0.2333333   0.0000000), wk =   0.0044444
        k(  402) = (   0.3000000  -0.2333333   0.0000000), wk =   0.0044444
        k(  403) = (   0.2666667  -0.2333333   0.0000000), wk =   0.0044444
        k(  404) = (  -0.3000000  -0.2666667   0.0000000), wk =   0.0044444
        k(  405) = (  -0.3333333  -0.2666667   0.0000000), wk =   0.0044444
        k(  406) = (  -0.3666667  -0.2666667   0.0000000), wk =   0.0044444
        k(  407) = (  -0.4000000  -0.2666667   0.0000000), wk =   0.0044444
        k(  408) = (  -0.4333333  -0.2666667   0.0000000), wk =   0.0044444
        k(  409) = (  -0.4666667  -0.2666667   0.0000000), wk =   0.0044444
        k(  410) = (   0.5000000  -0.2666667   0.0000000), wk =   0.0044444
        k(  411) = (   0.4666667  -0.2666667   0.0000000), wk =   0.0044444
        k(  412) = (   0.4333333  -0.2666667   0.0000000), wk =   0.0044444
        k(  413) = (   0.4000000  -0.2666667   0.0000000), wk =   0.0044444
        k(  414) = (   0.3666667  -0.2666667   0.0000000), wk =   0.0044444
        k(  415) = (   0.3333333  -0.2666667   0.0000000), wk =   0.0044444
        k(  416) = (   0.3000000  -0.2666667   0.0000000), wk =   0.0044444
        k(  417) = (  -0.3333333  -0.3000000   0.0000000), wk =   0.0044444
        k(  418) = (  -0.3666667  -0.3000000   0.0000000), wk =   0.0044444
        k(  419) = (  -0.4000000  -0.3000000   0.0000000), wk =   0.0044444
        k(  420) = (  -0.4333333  -0.3000000   0.0000000), wk =   0.0044444
        k(  421) = (  -0.4666667  -0.3000000   0.0000000), wk =   0.0044444
        k(  422) = (   0.5000000  -0.3000000   0.0000000), wk =   0.0044444
        k(  423) = (   0.4666667  -0.3000000   0.0000000), wk =   0.0044444
        k(  424) = (   0.4333333  -0.3000000   0.0000000), wk =   0.0044444
        k(  425) = (   0.4000000  -0.3000000   0.0000000), wk =   0.0044444
        k(  426) = (   0.3666667  -0.3000000   0.0000000), wk =   0.0044444
        k(  427) = (   0.3333333  -0.3000000   0.0000000), wk =   0.0044444
        k(  428) = (  -0.3666667  -0.3333333   0.0000000), wk =   0.0044444
        k(  429) = (  -0.4000000  -0.3333333   0.0000000), wk =   0.0044444
        k(  430) = (  -0.4333333  -0.3333333   0.0000000), wk =   0.0044444
        k(  431) = (  -0.4666667  -0.3333333   0.0000000), wk =   0.0044444
        k(  432) = (   0.5000000  -0.3333333   0.0000000), wk =   0.0044444
        k(  433) = (   0.4666667  -0.3333333   0.0000000), wk =   0.0044444
        k(  434) = (   0.4333333  -0.3333333   0.0000000), wk =   0.0044444
        k(  435) = (   0.4000000  -0.3333333   0.0000000), wk =   0.0044444
        k(  436) = (   0.3666667  -0.3333333   0.0000000), wk =   0.0044444
        k(  437) = (  -0.4000000  -0.3666667   0.0000000), wk =   0.0044444
        k(  438) = (  -0.4333333  -0.3666667   0.0000000), wk =   0.0044444
        k(  439) = (  -0.4666667  -0.3666667   0.0000000), wk =   0.0044444
        k(  440) = (   0.5000000  -0.3666667   0.0000000), wk =   0.0044444
        k(  441) = (   0.4666667  -0.3666667   0.0000000), wk =   0.0044444
        k(  442) = (   0.4333333  -0.3666667   0.0000000), wk =   0.0044444
        k(  443) = (   0.4000000  -0.3666667   0.0000000), wk =   0.0044444
        k(  444) = (  -0.4333333  -0.4000000   0.0000000), wk =   0.0044444
        k(  445) = (  -0.4666667  -0.4000000   0.0000000), wk =   0.0044444
        k(  446) = (   0.5000000  -0.4000000   0.0000000), wk =   0.0044444
        k(  447) = (   0.4666667  -0.4000000   0.0000000), wk =   0.0044444
        k(  448) = (   0.4333333  -0.4000000   0.0000000), wk =   0.0044444
        k(  449) = (  -0.4666667  -0.4333333   0.0000000), wk =   0.0044444
        k(  450) = (   0.5000000  -0.4333333   0.0000000), wk =   0.0044444
        k(  451) = (   0.4666667  -0.4333333   0.0000000), wk =   0.0044444
        k(  452) = (   0.5000000  -0.4666667   0.0000000), wk =   0.0044444

     Dense  grid:   251567 G-vectors     FFT dimensions: (  45,  45, 270)

     Smooth grid:    63583 G-vectors     FFT dimensions: (  30,  30, 180)

     Dynamical RAM for                 wfc:       0.76 MB

     Dynamical RAM for     wfc (w. buffer):       0.76 MB

     Dynamical RAM for           str. fact:       0.48 MB

     Dynamical RAM for           local pot:       0.00 MB

     Dynamical RAM for          nlocal pot:       0.26 MB

     Dynamical RAM for                qrad:       1.47 MB

     Dynamical RAM for          rho,v,vnew:       1.51 MB

     Dynamical RAM for           G-vectors:       0.93 MB

     Dynamical RAM for          h,s,v(r/c):       7.32 MB

     Dynamical RAM for          <psi|beta>:       0.05 MB

     Dynamical RAM for                 psi:       3.03 MB

     Dynamical RAM for                hpsi:       3.03 MB

     Dynamical RAM for      wfcinit/wfcrot:       1.74 MB

     Estimated static dynamical RAM per process >       7.44 MB

     Estimated max dynamical RAM per process >      20.87 MB

     Estimated total dynamical RAM >     333.95 MB

     The potential is recalculated from file :
     ./out/1x1_MoS2.save/charge-density

     Starting wfcs are   48 randomized atomic wfcs +   52 random wfcs

     Band Structure Calculation
     Davidson diagonalization with overlap

     Computing kpt #:     1  of   452
     total cpu time spent up to now is        6.0 secs

     Computing kpt #:     2  of   452
     total cpu time spent up to now is       11.5 secs

     Computing kpt #:     3  of   452
     total cpu time spent up to now is       17.1 secs

     Computing kpt #:     4  of   452
     total cpu time spent up to now is       22.5 secs

     Computing kpt #:     5  of   452
     total cpu time spent up to now is       27.2 secs

     Computing kpt #:     6  of   452
     total cpu time spent up to now is       32.4 secs

     Computing kpt #:     7  of   452
     total cpu time spent up to now is       37.7 secs

     Computing kpt #:     8  of   452
     total cpu time spent up to now is       42.4 secs

     Computing kpt #:     9  of   452
     total cpu time spent up to now is       47.4 secs

     Computing kpt #:    10  of   452
     total cpu time spent up to now is       52.9 secs

     Computing kpt #:    11  of   452
     total cpu time spent up to now is       58.5 secs

     Computing kpt #:    12  of   452
     total cpu time spent up to now is       63.8 secs

     Computing kpt #:    13  of   452
     total cpu time spent up to now is       69.3 secs

     Computing kpt #:    14  of   452
     total cpu time spent up to now is       73.6 secs

     Computing kpt #:    15  of   452
     total cpu time spent up to now is       77.6 secs

     Computing kpt #:    16  of   452
     total cpu time spent up to now is       83.5 secs

     Computing kpt #:    17  of   452
     total cpu time spent up to now is       87.5 secs

     Computing kpt #:    18  of   452
     total cpu time spent up to now is       92.2 secs

     Computing kpt #:    19  of   452
     total cpu time spent up to now is       97.2 secs

     Computing kpt #:    20  of   452
     total cpu time spent up to now is      101.8 secs

     Computing kpt #:    21  of   452
     total cpu time spent up to now is      106.5 secs

     Computing kpt #:    22  of   452
     total cpu time spent up to now is      111.4 secs

     Computing kpt #:    23  of   452
     total cpu time spent up to now is      116.3 secs

     Computing kpt #:    24  of   452
     total cpu time spent up to now is      121.4 secs

     Computing kpt #:    25  of   452
     total cpu time spent up to now is      128.5 secs

     Computing kpt #:    26  of   452
     total cpu time spent up to now is      133.4 secs

     Computing kpt #:    27  of   452
     total cpu time spent up to now is      138.1 secs

     Computing kpt #:    28  of   452
     total cpu time spent up to now is      142.8 secs

     Computing kpt #:    29  of   452
     total cpu time spent up to now is      148.0 secs

     Computing kpt #:    30  of   452
     total cpu time spent up to now is      152.7 secs

     Computing kpt #:    31  of   452
     total cpu time spent up to now is      157.7 secs

     Computing kpt #:    32  of   452
     total cpu time spent up to now is      162.6 secs

     Computing kpt #:    33  of   452
     total cpu time spent up to now is      167.4 secs

     Computing kpt #:    34  of   452
     total cpu time spent up to now is      172.2 secs

     Computing kpt #:    35  of   452
     total cpu time spent up to now is      177.4 secs

     Computing kpt #:    36  of   452
     total cpu time spent up to now is      182.4 secs

     Computing kpt #:    37  of   452
     total cpu time spent up to now is      187.4 secs

     Computing kpt #:    38  of   452
     total cpu time spent up to now is      192.2 secs

     Computing kpt #:    39  of   452
     total cpu time spent up to now is      197.1 secs

     Computing kpt #:    40  of   452
     total cpu time spent up to now is      201.4 secs

     Computing kpt #:    41  of   452
     total cpu time spent up to now is      205.8 secs

     Computing kpt #:    42  of   452
     total cpu time spent up to now is      210.3 secs

     Computing kpt #:    43  of   452
     total cpu time spent up to now is      217.7 secs

     Computing kpt #:    44  of   452
     total cpu time spent up to now is      222.0 secs

     Computing kpt #:    45  of   452
     total cpu time spent up to now is      227.0 secs

[...]
    18.8369  18.9190  19.7110  20.5595  21.0349  21.3620  21.6551  22.2274
    22.3542  22.7609  23.9595  24.1903  24.6721  25.1158  25.8298  25.9248
    26.1554  26.5143  26.9880  27.1290  27.4404  27.5587  28.0208  28.4688
    28.6689  29.6637  30.1327  30.3179  30.6149  30.9115  31.0036  31.7559
    32.5417  32.8209  32.8723  33.5242  34.1292  34.5972  34.9525  35.2348
    35.6306  35.6390  36.3315  36.4432  36.7681  36.9984  37.1525  37.6433
    37.9245  37.9861  38.1720  38.8289  38.8882  39.0845  39.1137  39.4692
    39.5797  40.1245  40.8101  40.8632

     occupation numbers 
     1.0000   1.0000   1.0000   1.0000   1.0000   1.0000   1.0000   1.0000
     1.0000   0.0000   0.0000   0.0000   0.0000   0.0000   0.0000   0.0000
     0.0000   0.0000   0.0000   0.0000   0.0000   0.0000   0.0000   0.0000
     0.0000   0.0000   0.0000   0.0000   0.0000   0.0000   0.0000   0.0000
     0.0000   0.0000   0.0000   0.0000   0.0000   0.0000   0.0000   0.0000
     0.0000   0.0000   0.0000   0.0000   0.0000   0.0000   0.0000   0.0000
     0.0000   0.0000   0.0000   0.0000   0.0000   0.0000   0.0000   0.0000
     0.0000   0.0000   0.0000   0.0000   0.0000   0.0000   0.0000   0.0000
     0.0000   0.0000   0.0000   0.0000   0.0000   0.0000   0.0000   0.0000
     0.0000   0.0000   0.0000   0.0000   0.0000   0.0000   0.0000   0.0000
     0.0000   0.0000   0.0000   0.0000   0.0000   0.0000   0.0000   0.0000
     0.0000   0.0000   0.0000   0.0000   0.0000   0.0000   0.0000   0.0000
     0.0000   0.0000   0.0000   0.0000

          k =-0.4675-0.7326 0.0000 (  7960 PWs)   bands (ev):

   -13.4506 -13.1155  -6.9976  -6.4219  -5.2860  -4.4431  -3.2340  -3.0331
    -1.5358   1.4866   2.2389   2.8622   3.6133   5.5137   7.8685   7.9602
     8.4723   8.8520   9.5919   9.7437  10.1265  11.0058  11.0671  11.4373
    12.1416  12.3271  13.2648  13.6284  14.0754  14.5702  15.0663  15.2586
    15.7329  16.1737  16.9224  17.2516  17.5461  17.6195  18.1710  18.4535
    19.2829  19.3746  20.0864  20.3722  20.8097  21.1675  21.7739  22.1959
    22.3208  22.9957  23.8149  24.0957  24.7604  24.9833  25.1848  25.3244
    26.0770  26.1010  26.5265  26.9195  27.2674  27.4179  28.1024  28.4421
    28.6897  28.9816  29.7779  30.2331  30.6790  30.8601  31.3981  31.6328
    32.2135  32.3396  33.1494  33.2162  34.3601  34.7472  34.8766  35.1597
    35.4757  35.8777  36.0655  36.5197  36.7578  37.2356  37.8557  38.0844
    38.1213  38.4850  38.6338  38.8369  39.1668  39.2825  39.4107  39.6781
    40.3047  40.6452  40.9287  40.9992

     occupation numbers 
     1.0000   1.0000   1.0000   1.0000   1.0000   1.0000   1.0000   1.0000
     1.0000   0.0000   0.0000   0.0000   0.0000   0.0000   0.0000   0.0000
     0.0000   0.0000   0.0000   0.0000   0.0000   0.0000   0.0000   0.0000
     0.0000   0.0000   0.0000   0.0000   0.0000   0.0000   0.0000   0.0000
     0.0000   0.0000   0.0000   0.0000   0.0000   0.0000   0.0000   0.0000
     0.0000   0.0000   0.0000   0.0000   0.0000   0.0000   0.0000   0.0000
     0.0000   0.0000   0.0000   0.0000   0.0000   0.0000   0.0000   0.0000
     0.0000   0.0000   0.0000   0.0000   0.0000   0.0000   0.0000   0.0000
     0.0000   0.0000   0.0000   0.0000   0.0000   0.0000   0.0000   0.0000
     0.0000   0.0000   0.0000   0.0000   0.0000   0.0000   0.0000   0.0000
     0.0000   0.0000   0.0000   0.0000   0.0000   0.0000   0.0000   0.0000
     0.0000   0.0000   0.0000   0.0000   0.0000   0.0000   0.0000   0.0000
     0.0000   0.0000   0.0000   0.0000

          k = 0.5010-0.1736 0.0000 (  7972 PWs)   bands (ev):

   -13.5254 -13.1639  -7.0703  -6.3202  -5.3019  -4.4074  -3.0118  -2.8703
    -1.6336   1.5111   2.0949   3.0148   3.5064   5.5447   7.3835   7.5969
     8.3493   9.1060   9.3656   9.6316   9.9723  10.8812  10.9258  11.4821
    12.1663  12.4625  13.3670  13.4449  14.3782  14.6061  15.1459  15.5959
    15.9155  16.7933  17.2214  17.3273  17.8421  18.0368  18.2109  18.4208
    19.5920  19.8412  20.2895  20.3956  20.6372  20.8739  21.7971  22.0925
    22.7509  23.4203  23.7514  23.8504  24.1356  24.6687  24.8916  25.1331
    25.7516  25.8223  26.2334  26.5511  26.8576  27.6794  28.1222  28.3884
    28.8556  28.9807  29.3286  30.0828  30.1736  30.9587  31.3622  31.7850
    32.2444  32.4592  32.7521  33.5421  33.9916  34.6943  35.0750  35.0898
    35.1639  35.7837  36.3678  36.5733  36.8763  37.5434  37.6029  38.0054
    38.2714  38.6176  38.7879  39.2585  39.4320  39.5775  39.6892  40.5688
    40.6542  41.0204  41.1802  41.4854

     occupation numbers 
     1.0000   1.0000   1.0000   1.0000   1.0000   1.0000   1.0000   1.0000
     1.0000   0.0000   0.0000   0.0000   0.0000   0.0000   0.0000   0.0000
     0.0000   0.0000   0.0000   0.0000   0.0000   0.0000   0.0000   0.0000
     0.0000   0.0000   0.0000   0.0000   0.0000   0.0000   0.0000   0.0000
     0.0000   0.0000   0.0000   0.0000   0.0000   0.0000   0.0000   0.0000
     0.0000   0.0000   0.0000   0.0000   0.0000   0.0000   0.0000   0.0000
     0.0000   0.0000   0.0000   0.0000   0.0000   0.0000   0.0000   0.0000
     0.0000   0.0000   0.0000   0.0000   0.0000   0.0000   0.0000   0.0000
     0.0000   0.0000   0.0000   0.0000   0.0000   0.0000   0.0000   0.0000
     0.0000   0.0000   0.0000   0.0000   0.0000   0.0000   0.0000   0.0000
     0.0000   0.0000   0.0000   0.0000   0.0000   0.0000   0.0000   0.0000
     0.0000   0.0000   0.0000   0.0000   0.0000   0.0000   0.0000   0.0000
     0.0000   0.0000   0.0000   0.0000

          k = 0.4676-0.1929 0.0000 (  7965 PWs)   bands (ev):

   -13.6072 -13.2139  -7.0933  -6.2217  -5.3097  -4.3442  -3.0081  -2.5594
    -1.7569   1.4970   1.9675   3.0110   3.5762   5.6401   6.9672   7.2811
     8.2065   8.9152   9.3673   9.5525  10.1135  10.7462  10.7986  11.6709
    12.2455  12.6276  13.2041  13.4862  14.5445  14.7379  15.1256  16.0395
    16.0602  16.6573  17.2546  17.5687  17.8970  18.0670  18.8512  19.1066
    19.4848  19.9631  19.9689  20.4955  20.9953  21.4441  21.7146  22.0130
    22.9016  23.0570  23.4107  23.9846  24.0186  24.4074  24.7012  25.0892
    25.5076  25.6489  26.2192  26.2505  26.7079  27.2691  28.1480  28.5152
    28.7412  29.0423  29.1257  30.0862  30.1229  30.8903  31.2073  31.6722
    32.1780  32.6362  33.1306  33.2595  33.9218  34.5412  34.7344  34.9298
    35.5056  36.0416  36.3115  36.4649  37.0550  37.3840  37.8919  38.0215
    38.3049  38.6420  38.7417  39.1207  39.4004  40.0160  40.0954  40.5153
    40.5521  40.9746  41.2251  41.4639

     occupation numbers 
     1.0000   1.0000   1.0000   1.0000   1.0000   1.0000   1.0000   1.0000
     1.0000   0.0000   0.0000   0.0000   0.0000   0.0000   0.0000   0.0000
     0.0000   0.0000   0.0000   0.0000   0.0000   0.0000   0.0000   0.0000
     0.0000   0.0000   0.0000   0.0000   0.0000   0.0000   0.0000   0.0000
     0.0000   0.0000   0.0000   0.0000   0.0000   0.0000   0.0000   0.0000
     0.0000   0.0000   0.0000   0.0000   0.0000   0.0000   0.0000   0.0000
     0.0000   0.0000   0.0000   0.0000   0.0000   0.0000   0.0000   0.0000
     0.0000   0.0000   0.0000   0.0000   0.0000   0.0000   0.0000   0.0000
     0.0000   0.0000   0.0000   0.0000   0.0000   0.0000   0.0000   0.0000
     0.0000   0.0000   0.0000   0.0000   0.0000   0.0000   0.0000   0.0000
     0.0000   0.0000   0.0000   0.0000   0.0000   0.0000   0.0000   0.0000
     0.0000   0.0000   0.0000   0.0000   0.0000   0.0000   0.0000   0.0000
     0.0000   0.0000   0.0000   0.0000

          k = 0.4342-0.2121 0.0000 (  7965 PWs)   bands (ev):

   -13.6922 -13.2631  -7.0696  -6.1282  -5.3054  -4.2678  -3.0130  -2.3163
    -1.9214   1.4811   1.8448   2.9551   3.6730   5.7878   6.6826   7.0499
     8.0539   8.6516   9.3291   9.5001  10.2801  10.6917  10.7979  11.9186
    12.3816  12.6882  13.1224  13.5946  14.5955  14.8671  15.0757  16.0901
    16.3376  16.3496  17.2225  17.3500  18.0142  18.6290  18.9874  19.3087
    19.6467  20.0863  20.3913  20.7146  21.0810  21.8165  21.9378  22.0145
    22.2732  22.5797  23.5898  23.8439  23.9589  24.3565  24.5929  25.1327
    25.6855  25.7817  26.1520  26.2120  26.7065  26.8955  27.7969  28.1661
    28.4890  29.2483  29.3506  30.2285  30.4813  30.7139  31.0713  31.4045
    32.1365  32.5457  32.9593  33.6071  34.1369  34.1853  34.4724  35.1273
    35.6990  36.0299  36.2738  36.5551  36.8912  37.4251  38.0146  38.3436
    38.3968  38.5418  38.6068  38.8982  39.0020  39.3489  39.4987  40.3038
    40.5593  40.6473  41.0356  41.2217

     occupation numbers 
     1.0000   1.0000   1.0000   1.0000   1.0000   1.0000   1.0000   1.0000
     1.0000   0.0000   0.0000   0.0000   0.0000   0.0000   0.0000   0.0000
     0.0000   0.0000   0.0000   0.0000   0.0000   0.0000   0.0000   0.0000
     0.0000   0.0000   0.0000   0.0000   0.0000   0.0000   0.0000   0.0000
     0.0000   0.0000   0.0000   0.0000   0.0000   0.0000   0.0000   0.0000
     0.0000   0.0000   0.0000   0.0000   0.0000   0.0000   0.0000   0.0000
     0.0000   0.0000   0.0000   0.0000   0.0000   0.0000   0.0000   0.0000
     0.0000   0.0000   0.0000   0.0000   0.0000   0.0000   0.0000   0.0000
     0.0000   0.0000   0.0000   0.0000   0.0000   0.0000   0.0000   0.0000
     0.0000   0.0000   0.0000   0.0000   0.0000   0.0000   0.0000   0.0000
     0.0000   0.0000   0.0000   0.0000   0.0000   0.0000   0.0000   0.0000
     0.0000   0.0000   0.0000   0.0000   0.0000   0.0000   0.0000   0.0000
     0.0000   0.0000   0.0000   0.0000

          k =-0.4675-0.7711 0.0000 (  7972 PWs)   bands (ev):

   -13.4651 -13.1314  -7.1250  -6.3895  -5.3375  -4.4077  -3.0543  -2.8453
    -1.5786   1.5440   2.1760   3.1493   3.3982   5.3396   7.5570   7.7992
     8.3105   8.8771   9.6767   9.6901  10.1657  10.7212  11.0238  11.3351
    11.9950  12.0049  13.3256  13.7402  14.3479  14.4698  15.1940  15.7863
    15.8001  16.9494  17.0697  17.5392  17.7407  18.0300  18.2377  18.3693
    19.4975  19.8289  20.3067  20.5128  20.5675  20.7725  21.5312  22.0065
    22.6856  23.2110  23.7194  23.8868  24.3108  24.5952  24.7790  24.9014
    25.5519  25.8249  26.3348  26.5391  27.1351  27.6798  28.0046  28.1152
    28.7221  29.2107  29.3729  30.2368  30.7764  30.9204  31.3066  31.5539
    32.1276  32.3029  33.0179  33.3934  33.7434  34.7093  35.0159  35.2791
    35.5674  36.0934  36.6722  36.7591  37.4799  37.6235  37.9862  38.3335
    38.4228  38.7510  38.9764  39.0516  39.6020  39.6179  39.7494  39.9158
    40.3278  40.6872  40.8681  41.0922

     occupation numbers 
     1.0000   1.0000   1.0000   1.0000   1.0000   1.0000   1.0000   1.0000
     1.0000   0.0000   0.0000   0.0000   0.0000   0.0000   0.0000   0.0000
     0.0000   0.0000   0.0000   0.0000   0.0000   0.0000   0.0000   0.0000
     0.0000   0.0000   0.0000   0.0000   0.0000   0.0000   0.0000   0.0000
     0.0000   0.0000   0.0000   0.0000   0.0000   0.0000   0.0000   0.0000
     0.0000   0.0000   0.0000   0.0000   0.0000   0.0000   0.0000   0.0000
     0.0000   0.0000   0.0000   0.0000   0.0000   0.0000   0.0000   0.0000
     0.0000   0.0000   0.0000   0.0000   0.0000   0.0000   0.0000   0.0000
     0.0000   0.0000   0.0000   0.0000   0.0000   0.0000   0.0000   0.0000
     0.0000   0.0000   0.0000   0.0000   0.0000   0.0000   0.0000   0.0000
     0.0000   0.0000   0.0000   0.0000   0.0000   0.0000   0.0000   0.0000
     0.0000   0.0000   0.0000   0.0000   0.0000   0.0000   0.0000   0.0000
     0.0000   0.0000   0.0000   0.0000

          k = 0.5010-0.2122 0.0000 (  7964 PWs)   bands (ev):

   -13.5164 -13.1654  -7.1820  -6.3218  -5.3539  -4.3648  -3.0542  -2.5121
    -1.6833   1.5511   2.0768   3.1249   3.5118   5.3467   7.1014   7.4859
     8.2709   8.9198   9.6064   9.6293  10.1412  10.7972  10.9263  11.1773
    12.0047  12.1225  13.3643  13.5394  14.5385  14.6725  15.1635  16.0408
    16.2502  17.0579  17.1649  17.6534  17.8641  17.9610  18.8335  19.0723
    19.4861  20.0043  20.0262  20.2830  20.8967  21.3542  21.3751  21.8908
    22.7213  22.9697  23.3502  23.7471  24.0909  24.3900  24.6937  24.8346
    25.2928  25.4474  26.1901  26.4040  26.9022  27.2668  28.1531  28.2697
    28.5351  29.2372  29.4430  30.2727  30.3525  31.0134  31.3438  31.4927
    32.2194  32.4569  32.9994  33.4031  33.6673  34.3264  34.7281  35.0126
    36.1172  36.1201  36.4548  36.9618  37.5615  37.7249  37.8528  38.3826
    38.6904  38.9122  39.1451  39.3419  39.6526  39.9255  40.0681  40.5572
    40.8675  41.0722  41.1121  41.3341

     occupation numbers 
     1.0000   1.0000   1.0000   1.0000   1.0000   1.0000   1.0000   1.0000
     1.0000   0.0000   0.0000   0.0000   0.0000   0.0000   0.0000   0.0000
     0.0000   0.0000   0.0000   0.0000   0.0000   0.0000   0.0000   0.0000
     0.0000   0.0000   0.0000   0.0000   0.0000   0.0000   0.0000   0.0000
     0.0000   0.0000   0.0000   0.0000   0.0000   0.0000   0.0000   0.0000
     0.0000   0.0000   0.0000   0.0000   0.0000   0.0000   0.0000   0.0000
     0.0000   0.0000   0.0000   0.0000   0.0000   0.0000   0.0000   0.0000
     0.0000   0.0000   0.0000   0.0000   0.0000   0.0000   0.0000   0.0000
     0.0000   0.0000   0.0000   0.0000   0.0000   0.0000   0.0000   0.0000
     0.0000   0.0000   0.0000   0.0000   0.0000   0.0000   0.0000   0.0000
     0.0000   0.0000   0.0000   0.0000   0.0000   0.0000   0.0000   0.0000
     0.0000   0.0000   0.0000   0.0000   0.0000   0.0000   0.0000   0.0000
     0.0000   0.0000   0.0000   0.0000

          k = 0.4676-0.2314 0.0000 (  7967 PWs)   bands (ev):

   -13.5732 -13.1996  -7.1895  -6.2562  -5.3555  -4.3147  -3.0571  -2.2458
    -1.8331   1.5355   1.9851   3.0297   3.6815   5.4279   6.7793   7.2503
     8.1999   8.8846   9.4315   9.5463  10.3878  10.6953  10.8360  11.2841
    12.0758  12.3297  13.2704  13.4455  14.7058  14.8550  15.0901  16.2547
    16.5850  16.7226  17.2507  17.3418  17.8937  18.6500  19.0255  19.2625
    19.7401  19.9943  20.2188  20.3588  20.8813  21.7306  21.8470  21.8835
    22.1090  22.3770  23.5112  23.5787  23.9485  24.2230  24.4538  24.9458
    25.4073  25.7945  26.1038  26.1495  26.6917  26.8586  27.7235  28.4274
    28.6318  29.3070  29.4616  30.1622  30.4909  30.9536  31.2694  31.4545
    32.1452  32.6872  32.8305  33.3928  33.9410  34.2705  34.4050  34.8739
    35.7059  36.4347  36.6193  37.1704  37.3858  37.8300  37.9697  38.4325
    38.5755  38.8035  38.9576  39.5189  39.7195  40.0296  40.0648  40.5923
    40.8514  40.9346  41.2128  41.6225

     occupation numbers 
     1.0000   1.0000   1.0000   1.0000   1.0000   1.0000   1.0000   1.0000
     1.0000   0.0000   0.0000   0.0000   0.0000   0.0000   0.0000   0.0000
     0.0000   0.0000   0.0000   0.0000   0.0000   0.0000   0.0000   0.0000
     0.0000   0.0000   0.0000   0.0000   0.0000   0.0000   0.0000   0.0000
     0.0000   0.0000   0.0000   0.0000   0.0000   0.0000   0.0000   0.0000
     0.0000   0.0000   0.0000   0.0000   0.0000   0.0000   0.0000   0.0000
     0.0000   0.0000   0.0000   0.0000   0.0000   0.0000   0.0000   0.0000
     0.0000   0.0000   0.0000   0.0000   0.0000   0.0000   0.0000   0.0000
     0.0000   0.0000   0.0000   0.0000   0.0000   0.0000   0.0000   0.0000
     0.0000   0.0000   0.0000   0.0000   0.0000   0.0000   0.0000   0.0000
     0.0000   0.0000   0.0000   0.0000   0.0000   0.0000   0.0000   0.0000
     0.0000   0.0000   0.0000   0.0000   0.0000   0.0000   0.0000   0.0000
     0.0000   0.0000   0.0000   0.0000

          k = 0.5010-0.2507 0.0000 (  7947 PWs)   bands (ev):

   -13.5103 -13.1664  -7.2538  -6.3223  -5.3844  -4.3382  -3.0788  -2.2080
    -1.7808   1.5659   2.0740   3.0654   3.6828   5.2196   6.8477   7.3927
     8.2562   8.7971   9.5955   9.8925  10.3075  10.5625  10.9212  11.1487
    11.7857  11.9050  13.3121  13.7052  14.3091  14.9272  15.2423  16.3693
    16.6412  17.0402  17.3191  17.3793  17.7527  18.7211  18.8978  19.4190
    19.9277  19.9731  20.1300  20.1440  20.6004  21.6987  21.7921  21.7940
    21.9881  22.2442  23.4198  23.4455  23.9055  24.3633  24.3828  24.7032
    25.0924  25.8182  25.9931  26.1361  26.9633  26.9868  27.6643  28.2230
    28.6218  29.3520  29.9521  29.9844  30.6845  31.0542  31.2662  31.7419
    32.0875  32.3468  33.0537  33.1359  33.8886  34.1779  34.3759  34.8400
    35.7208  36.3857  37.0878  37.2178  37.5713  37.8468  38.0790  38.6261
    38.8051  39.3649  39.4025  39.8333  39.9148  40.1757  40.3261  40.9678
    41.2403  41.2980  41.4010  41.6620

     occupation numbers 
     1.0000   1.0000   1.0000   1.0000   1.0000   1.0000   1.0000   1.0000
     1.0000   0.0000   0.0000   0.0000   0.0000   0.0000   0.0000   0.0000
     0.0000   0.0000   0.0000   0.0000   0.0000   0.0000   0.0000   0.0000
     0.0000   0.0000   0.0000   0.0000   0.0000   0.0000   0.0000   0.0000
     0.0000   0.0000   0.0000   0.0000   0.0000   0.0000   0.0000   0.0000
     0.0000   0.0000   0.0000   0.0000   0.0000   0.0000   0.0000   0.0000
     0.0000   0.0000   0.0000   0.0000   0.0000   0.0000   0.0000   0.0000
     0.0000   0.0000   0.0000   0.0000   0.0000   0.0000   0.0000   0.0000
     0.0000   0.0000   0.0000   0.0000   0.0000   0.0000   0.0000   0.0000
     0.0000   0.0000   0.0000   0.0000   0.0000   0.0000   0.0000   0.0000
     0.0000   0.0000   0.0000   0.0000   0.0000   0.0000   0.0000   0.0000
     0.0000   0.0000   0.0000   0.0000   0.0000   0.0000   0.0000   0.0000
     0.0000   0.0000   0.0000   0.0000

     highest occupied, lowest unoccupied level (ev):    -1.1033    0.8807

     Writing output data file ./out/1x1_MoS2.save/

     init_run     :      0.41s CPU      0.46s WALL (       1 calls)
     electrons    :   2429.64s CPU   2453.20s WALL (       1 calls)

     Called by init_run:
     wfcinit      :      0.00s CPU      0.00s WALL (       1 calls)
     wfcinit:atom :      0.20s CPU      0.20s WALL (     452 calls)
     wfcinit:wfcr :     59.81s CPU     60.60s WALL (     452 calls)
     potinit      :      0.08s CPU      0.10s WALL (       1 calls)
     hinit0       :      0.22s CPU      0.23s WALL (       1 calls)

     Called by electrons:
     c_bands      :   2429.56s CPU   2453.11s WALL (       1 calls)
     v_of_rho     :      0.02s CPU      0.02s WALL (       1 calls)
     v_h          :      0.01s CPU      0.01s WALL (       1 calls)
     v_xc         :      0.01s CPU      0.01s WALL (       1 calls)

     Called by c_bands:
     init_us_2    :      0.20s CPU      0.21s WALL (     452 calls)
     cegterg      :   2356.77s CPU   2378.67s WALL (     974 calls)

     Called by sum_band:

     Called by *egterg:
     h_psi        :    503.40s CPU    510.27s WALL (   14701 calls)
     g_psi        :      1.47s CPU      1.48s WALL (   13275 calls)
     cdiaghg      :    873.39s CPU    875.26s WALL (   13727 calls)
     cegterg:over :    378.03s CPU    388.40s WALL (   13275 calls)
     cegterg:upda :    217.56s CPU    218.58s WALL (   13275 calls)
     cegterg:last :    178.37s CPU    178.89s WALL (    2330 calls)

     Called by h_psi:
     h_psi:calbec :     31.46s CPU     32.59s WALL (   14701 calls)
     vloc_psi     :    451.49s CPU    456.94s WALL (   14701 calls)
     add_vuspsi   :     17.65s CPU     17.90s WALL (   14701 calls)

     General routines
     calbec       :     31.35s CPU     32.52s WALL (   14701 calls)
     fft          :      0.03s CPU      0.05s WALL (       4 calls)
     ffts         :      0.01s CPU      0.01s WALL (       1 calls)
     fftw         :    428.89s CPU    434.16s WALL ( 1299776 calls)
     interpolate  :      0.02s CPU      0.02s WALL (       1 calls)
     davcio       :      0.62s CPU      1.05s WALL (     904 calls)

     Parallel routines
     fft_scatt_xy :     28.01s CPU     28.29s WALL ( 1299781 calls)
     fft_scatt_yz :    259.35s CPU    263.19s WALL ( 1299781 calls)

     PWSCF        :  40m48.90s CPU  41m22.07s WALL


   This run was terminated on:  20:41:42  23May2022            

=------------------------------------------------------------------------------=
   JOB DONE.
=------------------------------------------------------------------------------=
