
     Program PROJWFC v.6.5Max starts on  8Jun2022 at  2:38:51 

     This program is part of the open-source Quantum ESPRESSO suite
     for quantum simulation of materials; please cite
         "P. Giannozzi et al., J. Phys.:Condens. Matter 21 395502 (2009);
         "P. Giannozzi et al., J. Phys.:Condens. Matter 29 465901 (2017);
          URL http://www.quantum-espresso.org", 
     in publications or presentations arising from this work. More details at
     http://www.quantum-espresso.org/quote

     Parallel version (MPI), running on    16 processors

     MPI processes distributed on     1 nodes
     R & G space division:  proc/nbgrp/npool/nimage =      16

     Reading xml data from directory:

     ./out/1x1_MoS2.save/

     IMPORTANT: XC functional enforced from input :
     Exchange-correlation= PW
                           (   1   4   0   0   0   0   0)
     Any further DFT definition will be discarded
     Please, verify this is what you really want

               file Mo.pw-mt_fhi.UPF: wavefunction(s)  4f renormalized
               file S.pw-mt_fhi.UPF: wavefunction(s)  4f renormalized

     Parallelization info
     --------------------
     sticks:   dense  smooth     PW     G-vecs:    dense   smooth      PW
     Min          88      34     10                15714     3948     638
     Max          89      35     11                15731     3981     663
     Sum        1417     559    163               251567    63583   10347


     Gaussian broadening (read from input): ngauss,degauss=   0    0.020000


     Calling projwave .... 

  Problem Sizes 
  natomwfc =           48
  nbnd     =          100
  nkstot   =          100
  npwx     =          530
  nkb      =           35


     Atomic states used for projection
     (read from pseudopotential files):

     state #   1: atom   1 (Mo ), wfc  1 (l=0 m= 1)
     state #   2: atom   1 (Mo ), wfc  2 (l=1 m= 1)
     state #   3: atom   1 (Mo ), wfc  2 (l=1 m= 2)
     state #   4: atom   1 (Mo ), wfc  2 (l=1 m= 3)
     state #   5: atom   1 (Mo ), wfc  3 (l=2 m= 1)
     state #   6: atom   1 (Mo ), wfc  3 (l=2 m= 2)
     state #   7: atom   1 (Mo ), wfc  3 (l=2 m= 3)
     state #   8: atom   1 (Mo ), wfc  3 (l=2 m= 4)
     state #   9: atom   1 (Mo ), wfc  3 (l=2 m= 5)
     state #  10: atom   1 (Mo ), wfc  4 (l=3 m= 1)
     state #  11: atom   1 (Mo ), wfc  4 (l=3 m= 2)
     state #  12: atom   1 (Mo ), wfc  4 (l=3 m= 3)
     state #  13: atom   1 (Mo ), wfc  4 (l=3 m= 4)
     state #  14: atom   1 (Mo ), wfc  4 (l=3 m= 5)
     state #  15: atom   1 (Mo ), wfc  4 (l=3 m= 6)
     state #  16: atom   1 (Mo ), wfc  4 (l=3 m= 7)
     state #  17: atom   2 (S  ), wfc  1 (l=0 m= 1)
     state #  18: atom   2 (S  ), wfc  2 (l=1 m= 1)
     state #  19: atom   2 (S  ), wfc  2 (l=1 m= 2)
     state #  20: atom   2 (S  ), wfc  2 (l=1 m= 3)
     state #  21: atom   2 (S  ), wfc  3 (l=2 m= 1)
     state #  22: atom   2 (S  ), wfc  3 (l=2 m= 2)
     state #  23: atom   2 (S  ), wfc  3 (l=2 m= 3)
     state #  24: atom   2 (S  ), wfc  3 (l=2 m= 4)
     state #  25: atom   2 (S  ), wfc  3 (l=2 m= 5)
     state #  26: atom   2 (S  ), wfc  4 (l=3 m= 1)
     state #  27: atom   2 (S  ), wfc  4 (l=3 m= 2)
     state #  28: atom   2 (S  ), wfc  4 (l=3 m= 3)
     state #  29: atom   2 (S  ), wfc  4 (l=3 m= 4)
     state #  30: atom   2 (S  ), wfc  4 (l=3 m= 5)
     state #  31: atom   2 (S  ), wfc  4 (l=3 m= 6)
     state #  32: atom   2 (S  ), wfc  4 (l=3 m= 7)
     state #  33: atom   3 (S  ), wfc  1 (l=0 m= 1)
     state #  34: atom   3 (S  ), wfc  2 (l=1 m= 1)
     state #  35: atom   3 (S  ), wfc  2 (l=1 m= 2)
     state #  36: atom   3 (S  ), wfc  2 (l=1 m= 3)
     state #  37: atom   3 (S  ), wfc  3 (l=2 m= 1)
     state #  38: atom   3 (S  ), wfc  3 (l=2 m= 2)
     state #  39: atom   3 (S  ), wfc  3 (l=2 m= 3)
     state #  40: atom   3 (S  ), wfc  3 (l=2 m= 4)
     state #  41: atom   3 (S  ), wfc  3 (l=2 m= 5)
     state #  42: atom   3 (S  ), wfc  4 (l=3 m= 1)
     state #  43: atom   3 (S  ), wfc  4 (l=3 m= 2)
     state #  44: atom   3 (S  ), wfc  4 (l=3 m= 3)
     state #  45: atom   3 (S  ), wfc  4 (l=3 m= 4)
     state #  46: atom   3 (S  ), wfc  4 (l=3 m= 5)
     state #  47: atom   3 (S  ), wfc  4 (l=3 m= 6)
     state #  48: atom   3 (S  ), wfc  4 (l=3 m= 7)

 k =   0.0000000000  0.0000000000  0.0000000000
==== e(   1) =   -15.57595 eV ==== 
     psi = 0.430*[#   1]+0.271*[#  17]+0.271*[#  33]+0.009*[#  18]+0.009*[#  34]
          +0.002*[#  21]+0.002*[#  37]+0.001*[#  16]
    |psi|^2 = 0.996
==== e(   2) =   -14.34826 eV ==== 
     psi = 0.276*[#  17]+0.276*[#  33]+0.016*[#  21]+0.016*[#  37]
    |psi|^2 = 0.585
==== e(   3) =    -7.01803 eV ==== 
     psi = 0.414*[#   2]+0.321*[#   5]+0.029*[#  21]+0.029*[#  37]+0.026*[#  17]
          +0.026*[#  33]+0.022*[#   1]
    |psi|^2 = 0.869
==== e(   4) =    -3.74146 eV ==== 
     psi = 0.491*[#   8]+0.164*[#   9]+0.110*[#  20]+0.110*[#  36]+0.037*[#  19]
          +0.037*[#  35]+0.017*[#  23]+0.017*[#  39]+0.006*[#  22]+0.006*[#  38]
          +0.001*[#  24]+0.001*[#  40]
    |psi|^2 = 0.999
==== e(   5) =    -3.73771 eV ==== 
     psi = 0.491*[#   9]+0.164*[#   8]+0.110*[#  19]+0.110*[#  35]+0.037*[#  20]
          +0.037*[#  36]+0.017*[#  22]+0.017*[#  38]+0.006*[#  23]+0.006*[#  39]
          +0.001*[#  25]+0.001*[#  41]
    |psi|^2 = 0.999
==== e(   6) =    -3.12817 eV ==== 
     psi = 0.110*[#  18]+0.110*[#  34]+0.009*[#  10]+0.003*[#  21]+0.003*[#  37]
          
    |psi|^2 = 0.237
==== e(   7) =    -2.55521 eV ==== 
     psi = 0.490*[#  18]+0.490*[#  34]+0.407*[#   7]+0.150*[#  20]+0.150*[#  36]
          +0.136*[#   6]+0.050*[#  19]+0.050*[#  35]+0.013*[#  24]+0.013*[#  40]
          +0.006*[#  23]+0.006*[#  39]+0.004*[#  13]+0.004*[#  25]+0.004*[#  41]
          +0.002*[#  22]+0.002*[#  38]+0.001*[#  14]+0.001*[#   2]
    |psi|^2 = 1.980
==== e(   8) =    -2.55166 eV ==== 
     psi = 0.407*[#   6]+0.150*[#  19]+0.150*[#  35]+0.136*[#   7]+0.050*[#  20]
          +0.050*[#  36]+0.013*[#  25]+0.013*[#  41]+0.006*[#  22]+0.006*[#  38]
          +0.004*[#  14]+0.004*[#  24]+0.004*[#  40]+0.002*[#  23]+0.002*[#  39]
          +0.001*[#  13]
    |psi|^2 = 0.999
==== e(   9) =    -1.24925 eV ==== 
     psi = 0.492*[#   5]+0.195*[#  18]+0.195*[#  34]+0.042*[#  21]+0.042*[#  37]
          +0.007*[#  17]+0.007*[#  33]+0.003*[#   1]
    |psi|^2 = 0.985
==== e(  10) =     1.99610 eV ==== 
     psi = 0.238*[#   7]+0.210*[#  20]+0.210*[#  36]+0.079*[#   6]+0.070*[#  19]
          +0.070*[#  35]+0.037*[#  24]+0.037*[#  40]+0.012*[#  25]+0.012*[#  41]
          +0.010*[#  13]+0.003*[#  14]+0.002*[#  23]+0.002*[#  39]
    |psi|^2 = 0.997
==== e(  11) =     1.99700 eV ==== 
     psi = 0.238*[#   6]+0.210*[#  19]+0.210*[#  35]+0.079*[#   7]+0.070*[#  20]
          +0.070*[#  36]+0.037*[#  25]+0.036*[#  41]+0.012*[#  24]+0.012*[#  40]
          +0.010*[#  14]+0.003*[#  13]+0.002*[#  22]+0.002*[#  38]
    |psi|^2 = 0.997
==== e(  12) =     2.30808 eV ==== 
     psi = 0.256*[#  20]+0.256*[#  36]+0.190*[#   8]+0.085*[#  19]+0.085*[#  35]
          +0.070*[#  18]+0.070*[#  34]+0.063*[#   9]+0.011*[#  23]+0.011*[#  39]
          +0.008*[#  24]+0.008*[#  40]+0.004*[#  12]+0.004*[#   4]+0.004*[#  22]
          +0.004*[#  38]+0.003*[#  25]+0.003*[#  41]+0.001*[#  11]+0.001*[#   3]
          
    |psi|^2 = 1.139
==== e(  13) =     2.31213 eV ==== 
     psi = 0.256*[#  19]+0.256*[#  35]+0.190*[#   9]+0.085*[#  20]+0.085*[#  36]
          +0.063*[#   8]+0.011*[#  22]+0.011*[#  38]+0.008*[#  25]+0.008*[#  41]
          +0.004*[#  11]+0.004*[#   3]+0.004*[#  23]+0.004*[#  39]+0.003*[#  24]
          +0.003*[#  40]+0.001*[#  12]+0.001*[#   4]
    |psi|^2 = 0.999
==== e(  14) =     4.46344 eV ==== 
     psi = 0.256*[#  18]+0.256*[#  34]+0.103*[#   1]+0.041*[#   5]+0.035*[#  17]
          +0.035*[#  33]+0.016*[#  21]+0.016*[#  37]+0.004*[#   2]
    |psi|^2 = 0.765
==== e(  15) =     4.68293 eV ==== 
     psi = 0.063*[#  21]+0.063*[#  37]+0.018*[#  17]+0.018*[#  33]+0.004*[#  18]
          +0.004*[#  34]+0.002*[#  10]
    |psi|^2 = 0.172
==== e(  16) =     5.38329 eV ==== 
     psi = 0.295*[#   1]+0.111*[#  17]+0.111*[#  33]+0.047*[#  16]+0.043*[#  21]
          +0.043*[#  37]
    |psi|^2 = 0.651
==== e(  17) =     5.77132 eV ==== 
     psi = 0.095*[#  21]+0.095*[#  37]+0.042*[#   5]+0.029*[#  16]+0.020*[#   1]
          +0.010*[#  17]+0.010*[#  33]+0.001*[#  18]+0.001*[#  34]
    |psi|^2 = 0.302
==== e(  18) =     6.95986 eV ==== 
     psi = 0.056*[#  21]+0.056*[#  37]+0.010*[#  17]+0.010*[#  33]+0.003*[#  10]
          
    |psi|^2 = 0.133
==== e(  19) =     8.25247 eV ==== 
     psi = 0.253*[#  21]+0.253*[#  37]+0.140*[#  17]+0.140*[#  33]+0.063*[#   2]
          +0.011*[#  10]
    |psi|^2 = 0.860
==== e(  20) =     8.33436 eV ==== 
     psi = 0.050*[#  21]+0.050*[#  37]+0.039*[#   5]+0.030*[#   1]+0.008*[#  17]
          +0.008*[#  33]+0.007*[#  16]
    |psi|^2 = 0.192
==== e(  21) =     9.87096 eV ==== 
     psi = 0.329*[#  24]+0.329*[#  40]+0.110*[#  25]+0.110*[#  41]+0.024*[#   4]
          +0.019*[#  12]+0.013*[#  23]+0.013*[#  39]+0.008*[#   3]+0.006*[#  11]
          +0.005*[#   8]+0.004*[#  20]+0.004*[#  22]+0.004*[#  36]+0.004*[#  38]
          +0.002*[#   9]+0.001*[#  19]+0.001*[#  35]
    |psi|^2 = 0.988
==== e(  22) =     9.87661 eV ==== 
     psi = 0.329*[#  25]+0.329*[#  41]+0.110*[#  24]+0.110*[#  40]+0.024*[#   3]
          +0.019*[#  11]+0.013*[#  22]+0.013*[#  38]+0.008*[#   2]+0.008*[#   4]
          +0.006*[#  12]+0.005*[#   9]+0.004*[#  19]+0.004*[#  23]+0.004*[#  35]
          +0.004*[#  39]+0.002*[#   8]+0.001*[#  18]+0.001*[#  20]+0.001*[#  34]
          +0.001*[#  36]
    |psi|^2 = 0.999
==== e(  23) =    10.47291 eV ==== 
     psi = 0.024*[#  21]+0.024*[#  37]+0.018*[#  17]+0.018*[#  33]+0.004*[#  10]
          
    |psi|^2 = 0.089
==== e(  24) =    11.75145 eV ==== 
     psi = 0.098*[#  21]+0.098*[#  37]+0.052*[#   1]+0.034*[#   5]+0.024*[#   2]
          +0.012*[#  17]+0.012*[#  33]+0.005*[#  16]+0.004*[#  18]+0.004*[#  34]
          +0.001*[#  32]+0.001*[#  48]
    |psi|^2 = 0.347
==== e(  25) =    12.14874 eV ==== 
     psi = 0.214*[#  24]+0.214*[#  40]+0.118*[#  23]+0.118*[#  39]+0.071*[#  25]
          +0.071*[#  41]+0.039*[#  22]+0.039*[#  38]+0.027*[#   7]+0.022*[#  13]
          +0.009*[#   6]+0.008*[#  20]+0.008*[#  36]+0.007*[#  14]+0.003*[#  19]
          +0.003*[#  35]
    |psi|^2 = 0.972
==== e(  26) =    12.15621 eV ==== 
     psi = 0.214*[#  25]+0.214*[#  41]+0.119*[#  22]+0.119*[#  38]+0.071*[#  24]
          +0.071*[#  40]+0.040*[#  23]+0.040*[#  39]+0.027*[#   6]+0.022*[#  14]
          +0.009*[#   7]+0.008*[#  19]+0.008*[#  35]+0.007*[#  13]+0.003*[#  18]
          +0.003*[#  20]+0.003*[#  34]+0.003*[#  36]
    |psi|^2 = 0.977
==== e(  27) =    12.92093 eV ==== 
     psi = 0.083*[#  21]+0.083*[#  37]+0.020*[#  16]+0.005*[#   5]+0.003*[#  26]
          +0.003*[#  42]+0.002*[#   1]
    |psi|^2 = 0.200
==== e(  28) =    14.95428 eV ==== 
     psi = 0.047*[#  10]+0.016*[#  21]+0.016*[#  37]+0.010*[#  17]+0.010*[#  33]
          +0.008*[#  18]+0.008*[#  34]+0.005*[#  32]+0.005*[#  48]
    |psi|^2 = 0.123
==== e(  29) =    15.69064 eV ==== 
     psi = 0.056*[#  10]+0.014*[#  32]+0.014*[#  48]+0.002*[#  18]+0.002*[#  34]
          +0.002*[#  26]+0.002*[#  42]+0.001*[#  21]+0.001*[#  37]
    |psi|^2 = 0.097
==== e(  30) =    15.73478 eV ==== 
     psi = 0.205*[#  23]+0.205*[#  39]+0.096*[#  24]+0.096*[#  40]+0.068*[#  22]
          +0.068*[#  38]+0.063*[#   7]+0.032*[#  25]+0.032*[#  41]+0.031*[#  13]
          +0.021*[#   6]+0.010*[#  14]+0.002*[#  29]+0.002*[#  45]
    |psi|^2 = 0.932
==== e(  31) =    15.73733 eV ==== 
     psi = 0.204*[#  22]+0.204*[#  38]+0.096*[#  25]+0.096*[#  41]+0.068*[#  23]
          +0.068*[#  39]+0.062*[#   6]+0.032*[#  24]+0.032*[#  40]+0.031*[#  14]
          +0.021*[#   7]+0.010*[#  13]+0.002*[#  30]+0.002*[#  46]
    |psi|^2 = 0.930
==== e(  32) =    15.96410 eV ==== 
     psi = 0.048*[#  16]+0.016*[#   1]+0.007*[#  17]+0.007*[#  33]+0.006*[#  26]
          +0.006*[#  42]+0.003*[#  32]+0.003*[#  48]+0.003*[#  21]+0.003*[#  37]
          
    |psi|^2 = 0.102
==== e(  33) =    16.38722 eV ==== 
     psi = 0.315*[#  23]+0.315*[#  39]+0.105*[#  22]+0.105*[#  38]+0.059*[#   8]
          +0.020*[#   9]+0.012*[#  24]+0.012*[#  40]+0.005*[#   4]+0.004*[#  25]
          +0.004*[#  41]+0.002*[#  12]+0.002*[#   3]
    |psi|^2 = 0.960
==== e(  34) =    16.39111 eV ==== 
     psi = 0.315*[#  22]+0.315*[#  38]+0.105*[#  23]+0.105*[#  39]+0.059*[#   9]
          +0.020*[#   8]+0.012*[#  25]+0.012*[#  41]+0.005*[#   3]+0.004*[#  24]
          +0.004*[#  40]+0.002*[#  11]+0.002*[#   2]+0.002*[#   4]
    |psi|^2 = 0.962
==== e(  35) =    18.99646 eV ==== 
     psi = 0.016*[#  21]+0.016*[#  37]+0.014*[#  32]+0.014*[#  48]+0.009*[#   5]
          +0.001*[#  16]
    |psi|^2 = 0.072
==== e(  36) =    19.23642 eV ==== 
     psi = 0.023*[#  21]+0.023*[#  37]+0.015*[#  17]+0.015*[#  33]+0.009*[#  26]
          +0.009*[#  42]+0.006*[#  32]+0.006*[#  48]+0.005*[#   2]
    |psi|^2 = 0.112
==== e(  37) =    20.69675 eV ==== 
     psi = 0.020*[#   2]+0.014*[#  21]+0.014*[#  37]+0.007*[#  10]+0.004*[#  17]
          +0.004*[#  33]+0.002*[#  26]+0.002*[#  42]
    |psi|^2 = 0.066
==== e(  38) =    21.20092 eV ==== 
     psi = 0.060*[#  16]+0.010*[#   1]+0.004*[#  17]+0.004*[#  33]+0.003*[#  26]
          +0.003*[#  32]+0.003*[#  42]+0.003*[#  48]
    |psi|^2 = 0.090
==== e(  39) =    22.85766 eV ==== 
     psi = 0.142*[#   4]+0.047*[#   3]+0.015*[#  29]+0.015*[#  45]+0.007*[#  12]
          +0.005*[#  30]+0.005*[#  46]+0.004*[#  23]+0.004*[#  39]+0.002*[#  11]
          +0.001*[#  22]+0.001*[#  38]
    |psi|^2 = 0.259
==== e(  40) =    22.86428 eV ==== 
     psi = 0.142*[#   3]+0.047*[#   4]+0.015*[#  30]+0.015*[#  46]+0.007*[#  11]
          +0.005*[#  29]+0.005*[#  45]+0.004*[#  22]+0.004*[#  38]+0.002*[#  12]
          +0.001*[#  23]+0.001*[#  39]
    |psi|^2 = 0.257
==== e(  41) =    24.42299 eV ==== 
     psi = 0.011*[#  13]+0.004*[#   7]+0.004*[#  14]+0.003*[#  29]+0.003*[#  45]
          +0.003*[#  24]+0.003*[#  40]+0.003*[#  23]+0.003*[#  39]+0.002*[#  28]
          +0.002*[#  44]+0.001*[#   6]+0.001*[#  30]+0.001*[#  46]
    |psi|^2 = 0.050
==== e(  42) =    24.43083 eV ==== 
     psi = 0.011*[#  14]+0.004*[#   6]+0.004*[#  13]+0.003*[#  30]+0.003*[#  46]
          +0.003*[#  25]+0.003*[#  41]+0.003*[#  22]+0.003*[#  38]+0.002*[#  27]
          +0.002*[#  43]+0.001*[#   7]+0.001*[#  24]+0.001*[#  29]+0.001*[#  45]
          
    |psi|^2 = 0.050
==== e(  43) =    24.62374 eV ==== 
     psi = 0.035*[#  10]+0.003*[#  21]+0.003*[#  37]
    |psi|^2 = 0.045
==== e(  44) =    25.08826 eV ==== 
     psi = 0.018*[#  16]+0.003*[#  21]+0.003*[#  37]+0.001*[#   5]
    |psi|^2 = 0.030
==== e(  45) =    25.16984 eV ==== 
     psi = 0.004*[#  21]+0.004*[#  37]+0.003*[#   5]+0.002*[#  32]+0.002*[#  48]
          +0.002*[#  16]
    |psi|^2 = 0.019
==== e(  46) =    25.22126 eV ==== 
     psi = 0.013*[#  13]+0.004*[#  14]+0.002*[#  24]+0.002*[#  40]+0.002*[#  44]
          +0.002*[#  28]+0.001*[#   7]+0.001*[#  39]
    |psi|^2 = 0.033
==== e(  47) =    25.22286 eV ==== 
     psi = 0.021*[#   4]+0.007*[#   3]+0.004*[#  23]+0.004*[#  39]+0.002*[#  28]
          +0.002*[#  44]+0.001*[#  22]+0.001*[#  38]+0.001*[#   8]
    |psi|^2 = 0.048
==== e(  48) =    25.22772 eV ==== 
     psi = 0.013*[#  14]+0.004*[#  13]+0.002*[#  25]+0.002*[#  41]+0.002*[#  43]
          +0.002*[#  27]+0.001*[#   6]
    |psi|^2 = 0.033
==== e(  49) =    25.22996 eV ==== 
     psi = 0.021*[#   3]+0.007*[#   4]+0.004*[#  22]+0.004*[#  38]+0.002*[#  27]
          +0.002*[#  43]+0.001*[#  23]+0.001*[#  39]+0.001*[#   9]
    |psi|^2 = 0.047
==== e(  50) =    25.76930 eV ==== 
     psi = 0.021*[#   2]+0.001*[#  10]
    |psi|^2 = 0.026
==== e(  51) =    25.94113 eV ==== 
     psi = 0.032*[#   4]+0.011*[#   3]+0.002*[#   2]+0.002*[#  29]+0.002*[#  45]
          
    |psi|^2 = 0.053
==== e(  52) =    25.94720 eV ==== 
     psi = 0.029*[#   3]+0.010*[#   4]+0.002*[#  16]+0.002*[#  30]+0.002*[#  46]
          
    |psi|^2 = 0.049
==== e(  53) =    25.95923 eV ==== 
     psi = 0.019*[#  16]+0.003*[#   3]+0.002*[#  21]+0.002*[#  37]+0.001*[#   1]
          +0.001*[#   5]
    |psi|^2 = 0.031
==== e(  54) =    26.43078 eV ==== 
     psi = 0.003*[#   2]+0.002*[#  16]
    |psi|^2 = 0.007
==== e(  55) =    26.47770 eV ==== 
     psi = 0.016*[#   4]+0.005*[#   3]+0.001*[#  28]+0.001*[#  44]+0.001*[#  23]
          +0.001*[#  39]
    |psi|^2 = 0.030
==== e(  56) =    26.48510 eV ==== 
     psi = 0.016*[#   3]+0.005*[#   4]+0.001*[#  27]+0.001*[#  43]+0.001*[#  22]
          +0.001*[#  38]
    |psi|^2 = 0.030
==== e(  57) =    26.92779 eV ==== 
     psi = 0.013*[#  16]+0.002*[#  32]+0.002*[#  48]
    |psi|^2 = 0.020
==== e(  58) =    26.96326 eV ==== 
     psi = 0.016*[#  10]+0.005*[#  26]+0.005*[#  42]+0.001*[#  21]+0.001*[#  37]
          
    |psi|^2 = 0.028
==== e(  59) =    27.07937 eV ==== 
     psi = 0.006*[#  13]+0.002*[#  14]+0.002*[#  29]+0.002*[#  45]+0.002*[#  23]
          +0.002*[#  39]+0.001*[#   7]+0.001*[#   2]
    |psi|^2 = 0.027
==== e(  60) =    27.08691 eV ==== 
     psi = 0.006*[#  14]+0.002*[#  13]+0.002*[#  30]+0.002*[#  46]+0.002*[#  22]
          +0.002*[#  38]+0.001*[#   6]
    |psi|^2 = 0.026
==== e(  61) =    27.19917 eV ==== 
     psi = 0.007*[#   2]+0.006*[#  21]+0.006*[#  37]+0.004*[#  10]+0.001*[#  26]
          +0.001*[#  42]
    |psi|^2 = 0.029
==== e(  62) =    27.22735 eV ==== 
     psi = 0.096*[#   4]+0.032*[#   3]+0.004*[#  29]+0.004*[#  45]+0.002*[#  23]
          +0.002*[#  39]+0.001*[#  30]+0.001*[#  46]+0.001*[#  24]+0.001*[#  40]
          
    |psi|^2 = 0.148
==== e(  63) =    27.23431 eV ==== 
     psi = 0.096*[#   3]+0.032*[#   4]+0.004*[#  30]+0.004*[#  46]+0.002*[#  22]
          +0.002*[#  38]+0.001*[#  29]+0.001*[#  45]+0.001*[#  25]+0.001*[#  41]
          
    |psi|^2 = 0.148
==== e(  64) =    27.57931 eV ==== 
     psi = 0.032*[#   2]+0.012*[#  13]+0.004*[#  14]+0.002*[#  28]+0.002*[#  44]
          +0.001*[#  24]+0.001*[#  40]
    |psi|^2 = 0.058
==== e(  65) =    27.58600 eV ==== 
     psi = 0.012*[#  14]+0.004*[#  13]+0.002*[#  27]+0.002*[#  43]+0.001*[#  25]
          +0.001*[#  41]
    |psi|^2 = 0.026
==== e(  66) =    28.14092 eV ==== 
     psi = 0.002*[#  10]
    |psi|^2 = 0.004
==== e(  67) =    28.80759 eV ==== 
     psi = 0.004*[#  16]
    |psi|^2 = 0.008
==== e(  68) =    28.93227 eV ==== 
     psi = 0.071*[#   4]+0.023*[#   3]+0.013*[#  12]+0.004*[#  28]+0.004*[#  44]
          +0.004*[#  11]+0.001*[#  27]+0.001*[#  43]
    |psi|^2 = 0.126
==== e(  69) =    28.93986 eV ==== 
     psi = 0.070*[#   3]+0.023*[#   4]+0.013*[#  11]+0.004*[#  27]+0.004*[#  43]
          +0.004*[#  12]+0.001*[#  28]+0.001*[#  44]
    |psi|^2 = 0.126
==== e(  70) =    29.43534 eV ==== 
     psi = 0.070*[#   2]+0.005*[#  26]+0.005*[#  42]+0.001*[#  32]+0.001*[#  48]
          
    |psi|^2 = 0.084
==== e(  71) =    29.77843 eV ==== 
     psi = 0.080*[#   4]+0.026*[#   3]+0.008*[#  12]+0.003*[#  11]+0.002*[#  23]
          +0.002*[#  39]+0.001*[#  29]+0.001*[#  45]
    |psi|^2 = 0.128
==== e(  72) =    29.78488 eV ==== 
     psi = 0.080*[#   3]+0.027*[#   4]+0.008*[#  11]+0.003*[#  12]+0.002*[#  22]
          +0.002*[#  38]+0.001*[#  30]+0.001*[#  46]
    |psi|^2 = 0.128
==== e(  73) =    29.94147 eV ==== 
     psi = 0.028*[#  10]+0.003*[#   2]+0.003*[#  21]+0.003*[#  37]
    |psi|^2 = 0.038
==== e(  74) =    29.96423 eV ==== 
     psi = 0.020*[#  13]+0.007*[#  14]+0.005*[#  23]+0.005*[#  39]+0.005*[#  29]
          +0.005*[#  45]+0.002*[#   7]+0.002*[#  28]+0.002*[#  44]+0.002*[#  22]
          +0.002*[#  30]+0.002*[#  38]+0.002*[#  46]
    |psi|^2 = 0.063
==== e(  75) =    29.97240 eV ==== 
     psi = 0.020*[#  14]+0.007*[#  13]+0.005*[#  22]+0.005*[#  38]+0.005*[#  30]
          +0.005*[#  46]+0.002*[#   6]+0.002*[#  27]+0.002*[#  43]+0.002*[#  23]
          +0.002*[#  29]+0.002*[#  39]+0.002*[#  45]
    |psi|^2 = 0.063
==== e(  76) =    30.86980 eV ==== 
     psi = 0.030*[#  13]+0.010*[#  14]+0.004*[#  28]+0.004*[#  44]+0.002*[#  24]
          +0.002*[#  40]+0.001*[#  27]+0.001*[#  43]
    |psi|^2 = 0.060
==== e(  77) =    30.87592 eV ==== 
     psi = 0.030*[#  14]+0.010*[#  13]+0.004*[#  27]+0.004*[#  43]+0.002*[#  25]
          +0.002*[#  41]+0.001*[#  28]+0.001*[#  44]
    |psi|^2 = 0.060
==== e(  78) =    30.99768 eV ==== 
     psi = 0.012*[#  16]+0.006*[#  26]+0.006*[#  42]+0.003*[#   5]+0.002*[#  21]
          +0.002*[#  37]+0.001*[#   1]
    |psi|^2 = 0.033
==== e(  79) =    31.78236 eV ==== 
     psi = 0.009*[#  10]+0.001*[#  32]+0.001*[#  48]
    |psi|^2 = 0.013
==== e(  80) =    32.08841 eV ==== 
     psi = 0.062*[#  12]+0.055*[#   4]+0.021*[#  11]+0.018*[#   3]+0.005*[#  28]
          +0.005*[#  44]+0.004*[#  29]+0.004*[#  45]+0.002*[#  27]+0.002*[#  43]
          +0.001*[#  30]+0.001*[#  46]
    |psi|^2 = 0.183
==== e(  81) =    32.09578 eV ==== 
     psi = 0.062*[#  11]+0.055*[#   3]+0.021*[#  12]+0.018*[#   4]+0.005*[#  27]
          +0.005*[#  43]+0.004*[#  30]+0.004*[#  46]+0.002*[#  28]+0.002*[#  44]
          +0.001*[#  29]+0.001*[#  45]
    |psi|^2 = 0.183
==== e(  82) =    32.39064 eV ==== 
     psi = 0.055*[#   2]+0.009*[#  16]+0.005*[#  26]+0.005*[#  42]
    |psi|^2 = 0.074
==== e(  83) =    33.44315 eV ==== 
     psi = 0.013*[#  12]+0.010*[#   4]+0.004*[#  11]+0.004*[#  28]+0.004*[#  44]
          +0.003*[#   3]+0.001*[#  27]+0.001*[#  43]
    |psi|^2 = 0.043
==== e(  84) =    33.44792 eV ==== 
     psi = 0.013*[#  11]+0.010*[#   3]+0.004*[#  12]+0.004*[#  27]+0.004*[#  43]
          +0.003*[#   4]+0.001*[#  28]+0.001*[#  44]
    |psi|^2 = 0.043
==== e(  85) =    33.67438 eV ==== 
     psi = 0.071*[#  13]+0.024*[#  14]+0.012*[#  23]+0.012*[#  39]+0.004*[#  29]
          +0.004*[#  45]+0.004*[#  22]+0.004*[#  38]+0.002*[#  28]+0.002*[#  44]
          +0.001*[#   7]+0.001*[#  20]+0.001*[#  30]+0.001*[#  36]+0.001*[#  46]
          
    |psi|^2 = 0.151
==== e(  86) =    33.68302 eV ==== 
     psi = 0.071*[#  14]+0.024*[#  13]+0.012*[#  22]+0.012*[#  38]+0.004*[#  30]
          +0.004*[#  46]+0.004*[#  23]+0.004*[#  39]+0.002*[#  27]+0.002*[#  43]
          +0.001*[#   6]+0.001*[#  19]+0.001*[#  29]+0.001*[#  35]+0.001*[#  45]
          
    |psi|^2 = 0.152
==== e(  87) =    33.82940 eV ==== 
     psi = 0.032*[#  10]+0.004*[#  21]+0.004*[#  37]
    |psi|^2 = 0.043
==== e(  88) =    33.90773 eV ==== 
     psi = 0.014*[#  16]+0.003*[#  26]+0.003*[#  42]+0.002*[#  32]+0.002*[#  48]
          +0.001*[#  18]+0.001*[#  21]+0.001*[#  34]+0.001*[#  37]
    |psi|^2 = 0.030
==== e(  89) =    34.38852 eV ==== 
     psi = 0.010*[#  26]+0.010*[#  42]+0.006*[#  10]+0.001*[#  21]+0.001*[#  37]
          
    |psi|^2 = 0.029
==== e(  90) =    35.05009 eV ==== 
     psi = 0.043*[#  13]+0.014*[#  14]+0.003*[#  28]+0.003*[#  29]+0.003*[#  44]
          +0.003*[#  45]+0.003*[#  24]+0.003*[#  40]+0.002*[#  23]+0.002*[#  39]
          +0.001*[#  27]+0.001*[#  30]+0.001*[#  43]+0.001*[#  46]
    |psi|^2 = 0.087
==== e(  91) =    35.05442 eV ==== 
     psi = 0.043*[#  14]+0.014*[#  13]+0.003*[#  27]+0.003*[#  30]+0.003*[#  43]
          +0.003*[#  46]+0.003*[#  25]+0.003*[#  41]+0.002*[#  22]+0.002*[#  38]
          +0.001*[#  28]+0.001*[#  29]+0.001*[#  44]+0.001*[#  45]
    |psi|^2 = 0.087
==== e(  92) =    35.34731 eV ==== 
     psi = 0.005*[#  26]+0.005*[#  42]+0.002*[#  16]
    |psi|^2 = 0.017
==== e(  93) =    35.51341 eV ==== 
     psi = 0.099*[#  12]+0.033*[#  11]+0.005*[#  29]+0.005*[#  45]+0.004*[#  28]
          +0.004*[#  44]+0.003*[#  24]+0.003*[#  40]+0.002*[#  30]+0.002*[#  46]
          +0.001*[#  27]+0.001*[#  43]
    |psi|^2 = 0.166
==== e(  94) =    35.51916 eV ==== 
     psi = 0.099*[#  11]+0.033*[#  12]+0.005*[#  30]+0.005*[#  46]+0.004*[#  27]
          +0.004*[#  43]+0.003*[#  25]+0.003*[#  41]+0.002*[#  29]+0.002*[#  45]
          +0.001*[#  28]+0.001*[#  44]
    |psi|^2 = 0.166
==== e(  95) =    36.36780 eV ==== 
     psi = 0.044*[#  10]+0.002*[#  26]+0.002*[#  42]+0.002*[#  21]+0.002*[#  37]
          +0.002*[#  32]+0.002*[#  48]
    |psi|^2 = 0.057
==== e(  96) =    36.68127 eV ==== 
     psi = 0.006*[#  26]+0.006*[#  42]
    |psi|^2 = 0.016
==== e(  97) =    36.94715 eV ==== 
     psi = 0.128*[#  12]+0.043*[#  11]+0.022*[#   4]+0.007*[#   3]+0.006*[#  24]
          +0.006*[#  40]+0.002*[#  25]+0.002*[#  41]+0.002*[#  28]+0.002*[#  29]
          +0.002*[#  44]+0.002*[#  45]+0.001*[#  23]+0.001*[#  39]
    |psi|^2 = 0.230
==== e(  98) =    36.94740 eV ==== 
     psi = 0.129*[#  11]+0.043*[#  12]+0.022*[#   3]+0.007*[#   2]+0.007*[#   4]
          +0.006*[#  25]+0.006*[#  41]+0.002*[#  24]+0.002*[#  40]+0.001*[#  27]
          +0.002*[#  30]+0.002*[#  46]+0.001*[#  22]+0.001*[#  38]+0.001*[#  43]
          
    |psi|^2 = 0.239
==== e(  99) =    37.58552 eV ==== 
     psi = 0.053*[#  13]+0.018*[#  14]+0.009*[#  23]+0.009*[#  39]+0.003*[#  22]
          +0.003*[#  38]
    |psi|^2 = 0.103
==== e( 100) =    37.59182 eV ==== 
     psi = 0.053*[#  14]+0.022*[#   2]+0.018*[#  13]+0.009*[#  22]+0.009*[#  38]
          +0.003*[#  23]+0.003*[#  39]
    |psi|^2 = 0.126

 k =   0.0139177698 -0.0080354273  0.0000000000
==== e(   1) =   -15.57298 eV ==== 
     psi = 0.429*[#   1]+0.271*[#  17]+0.271*[#  33]+0.009*[#  18]+0.009*[#  34]
          +0.002*[#  21]+0.002*[#  37]+0.001*[#  16]
    |psi|^2 = 0.996
==== e(   2) =   -14.34649 eV ==== 
     psi = 0.277*[#  17]+0.277*[#  33]+0.016*[#  21]+0.016*[#  37]
    |psi|^2 = 0.586
==== e(   3) =    -7.01472 eV ==== 
     psi = 0.414*[#   2]+0.321*[#   5]+0.029*[#  21]+0.029*[#  37]+0.026*[#  17]
          +0.026*[#  33]+0.022*[#   1]
    |psi|^2 = 0.869
==== e(   4) =    -3.74505 eV ==== 
     psi = 0.490*[#   9]+0.163*[#   8]+0.111*[#  19]+0.111*[#  35]+0.037*[#  20]
          +0.037*[#  36]+0.017*[#  22]+0.017*[#  38]+0.006*[#  23]+0.006*[#  39]
          +0.001*[#  25]+0.001*[#  41]
    |psi|^2 = 0.999
==== e(   5) =    -3.73830 eV ==== 
     psi = 0.491*[#   8]+0.164*[#   9]+0.111*[#  20]+0.111*[#  36]+0.037*[#  19]
          +0.037*[#  35]+0.017*[#  23]+0.017*[#  39]+0.006*[#  22]+0.006*[#  38]
          +0.001*[#  24]+0.001*[#  40]
    |psi|^2 = 0.999
==== e(   6) =    -3.14577 eV ==== 
     psi = 0.037*[#  18]+0.037*[#  34]+0.015*[#   6]+0.008*[#  10]+0.005*[#   7]
          +0.004*[#  19]+0.004*[#  35]+0.003*[#  21]+0.003*[#  37]+0.001*[#  20]
          +0.001*[#  36]
    |psi|^2 = 0.122
==== e(   7) =    -2.56056 eV ==== 
     psi = 0.474*[#  18]+0.474*[#  34]+0.407*[#   7]+0.150*[#  20]+0.150*[#  36]
          +0.136*[#   6]+0.050*[#  19]+0.050*[#  35]+0.013*[#  24]+0.013*[#  40]
          +0.006*[#  23]+0.006*[#  39]+0.004*[#  13]+0.004*[#  25]+0.004*[#  41]
          +0.002*[#  22]+0.002*[#  38]+0.001*[#  14]+0.001*[#   2]
    |psi|^2 = 1.948
==== e(   8) =    -2.53844 eV ==== 
     psi = 0.390*[#   6]+0.147*[#  19]+0.147*[#  35]+0.130*[#   7]+0.049*[#  20]
          +0.049*[#  36]+0.012*[#  25]+0.012*[#  41]+0.006*[#  22]+0.006*[#  38]
          +0.004*[#  14]+0.004*[#  18]+0.004*[#  24]+0.004*[#  34]+0.004*[#  40]
          +0.002*[#  23]+0.002*[#  39]+0.001*[#  13]
    |psi|^2 = 0.976
==== e(   9) =    -1.24994 eV ==== 
     psi = 0.492*[#   5]+0.194*[#  18]+0.194*[#  34]+0.042*[#  21]+0.042*[#  37]
          +0.007*[#  17]+0.007*[#  33]+0.003*[#   1]
    |psi|^2 = 0.985
==== e(  10) =     1.99136 eV ==== 
     psi = 0.239*[#   6]+0.209*[#  19]+0.209*[#  35]+0.080*[#   7]+0.070*[#  20]
          +0.070*[#  36]+0.036*[#  25]+0.036*[#  41]+0.012*[#  24]+0.012*[#  40]
          +0.010*[#  14]+0.003*[#  13]+0.002*[#  22]+0.002*[#  38]
    |psi|^2 = 0.996
==== e(  11) =     2.00248 eV ==== 
     psi = 0.239*[#   7]+0.210*[#  20]+0.210*[#  36]+0.080*[#   6]+0.070*[#  19]
          +0.070*[#  35]+0.036*[#  24]+0.036*[#  40]+0.012*[#  25]+0.012*[#  41]
          +0.010*[#  13]+0.003*[#  14]+0.002*[#  23]+0.002*[#  39]
    |psi|^2 = 0.997
==== e(  12) =     2.30011 eV ==== 
     psi = 0.255*[#  19]+0.255*[#  35]+0.209*[#  18]+0.209*[#  34]+0.190*[#   9]
          +0.085*[#  20]+0.085*[#  36]+0.063*[#   8]+0.011*[#  22]+0.011*[#  38]
          +0.008*[#  25]+0.008*[#  41]+0.004*[#  11]+0.004*[#   3]+0.004*[#  23]
          +0.004*[#  39]+0.003*[#  24]+0.003*[#  40]+0.001*[#  12]+0.001*[#   4]
          
    |psi|^2 = 1.416
==== e(  13) =     2.30383 eV ==== 
     psi = 0.256*[#  20]+0.256*[#  36]+0.190*[#   8]+0.085*[#  19]+0.085*[#  35]
          +0.064*[#   9]+0.011*[#  23]+0.011*[#  39]+0.008*[#  24]+0.008*[#  40]
          +0.005*[#  12]+0.004*[#   4]+0.004*[#  22]+0.004*[#  38]+0.003*[#  25]
          +0.003*[#  41]+0.002*[#  11]+0.001*[#   3]
    |psi|^2 = 0.999
==== e(  14) =     4.46951 eV ==== 
     psi = 0.102*[#   1]+0.085*[#  18]+0.085*[#  34]+0.041*[#   5]+0.035*[#  17]
          +0.035*[#  33]+0.016*[#  21]+0.016*[#  37]+0.001*[#   2]
    |psi|^2 = 0.420
==== e(  15) =     4.68700 eV ==== 
     psi = 0.063*[#  21]+0.063*[#  37]+0.018*[#  17]+0.018*[#  33]+0.004*[#  18]
          +0.004*[#  34]+0.002*[#  10]
    |psi|^2 = 0.172
==== e(  16) =     5.39615 eV ==== 
     psi = 0.293*[#   1]+0.110*[#  17]+0.110*[#  33]+0.046*[#  16]+0.041*[#  21]
          +0.041*[#  37]
    |psi|^2 = 0.646
==== e(  17) =     5.77834 eV ==== 
     psi = 0.096*[#  21]+0.096*[#  37]+0.042*[#   5]+0.030*[#  16]+0.021*[#   1]
          +0.010*[#  17]+0.010*[#  33]+0.001*[#  18]+0.001*[#  34]
    |psi|^2 = 0.311
==== e(  18) =     6.96367 eV ==== 
     psi = 0.056*[#  21]+0.056*[#  37]+0.010*[#  17]+0.010*[#  33]+0.003*[#  10]
          
    |psi|^2 = 0.134
==== e(  19) =     8.26759 eV ==== 
     psi = 0.253*[#  21]+0.253*[#  37]+0.139*[#  17]+0.139*[#  33]+0.063*[#   2]
          +0.011*[#  10]
    |psi|^2 = 0.860
==== e(  20) =     8.33802 eV ==== 
     psi = 0.050*[#  21]+0.050*[#  37]+0.039*[#   5]+0.030*[#   1]+0.008*[#  17]
          +0.008*[#  33]+0.007*[#  16]
    |psi|^2 = 0.193
==== e(  21) =     9.86544 eV ==== 
     psi = 0.327*[#  25]+0.327*[#  41]+0.109*[#  24]+0.109*[#  40]+0.023*[#   3]
          +0.019*[#  11]+0.013*[#  22]+0.013*[#  38]+0.008*[#   4]+0.006*[#  12]
          +0.005*[#   9]+0.005*[#  19]+0.004*[#  23]+0.005*[#  35]+0.004*[#  39]
          +0.002*[#   8]+0.002*[#  20]+0.002*[#  36]
    |psi|^2 = 0.983
==== e(  22) =     9.88153 eV ==== 
     psi = 0.329*[#  24]+0.329*[#  40]+0.110*[#  25]+0.110*[#  41]+0.024*[#   4]
          +0.023*[#   2]+0.019*[#  12]+0.013*[#  23]+0.013*[#  39]+0.008*[#   3]
          +0.006*[#  11]+0.005*[#   8]+0.005*[#  18]+0.005*[#  20]+0.005*[#  34]
          +0.005*[#  36]+0.004*[#  22]+0.004*[#  38]+0.002*[#   9]+0.002*[#  19]
          +0.002*[#  35]
    |psi|^2 = 1.020
==== e(  23) =    10.47600 eV ==== 
     psi = 0.024*[#  21]+0.024*[#  37]+0.018*[#  17]+0.018*[#  33]+0.004*[#  10]
          
    |psi|^2 = 0.089
==== e(  24) =    11.76074 eV ==== 
     psi = 0.098*[#  21]+0.098*[#  37]+0.051*[#   1]+0.034*[#   5]+0.012*[#  17]
          +0.012*[#  33]+0.008*[#   2]+0.005*[#  16]+0.002*[#  18]+0.002*[#  34]
          +0.001*[#   3]+0.001*[#  32]+0.001*[#  48]+0.001*[#  25]+0.001*[#  41]
          
    |psi|^2 = 0.328
==== e(  25) =    12.12558 eV ==== 
     psi = 0.212*[#  25]+0.212*[#  41]+0.118*[#  22]+0.118*[#  38]+0.071*[#  24]
          +0.071*[#  40]+0.039*[#  23]+0.039*[#  39]+0.027*[#   6]+0.022*[#  14]
          +0.009*[#   7]+0.008*[#  19]+0.008*[#  35]+0.007*[#  13]+0.003*[#  20]
          +0.003*[#  36]
    |psi|^2 = 0.968
==== e(  26) =    12.14800 eV ==== 
     psi = 0.213*[#  24]+0.213*[#  40]+0.119*[#  23]+0.119*[#  39]+0.071*[#  25]
          +0.071*[#  41]+0.040*[#  22]+0.040*[#  38]+0.027*[#   7]+0.022*[#  13]
          +0.009*[#   6]+0.008*[#  18]+0.008*[#  20]+0.008*[#  34]+0.008*[#  36]
          +0.007*[#  14]+0.003*[#  19]+0.003*[#  35]
    |psi|^2 = 0.988
==== e(  27) =    12.92046 eV ==== 
     psi = 0.082*[#  21]+0.082*[#  37]+0.020*[#  16]+0.005*[#   5]+0.003*[#  26]
          +0.003*[#  42]+0.002*[#   1]+0.002*[#   3]+0.001*[#  22]+0.001*[#  38]
          
    |psi|^2 = 0.207
==== e(  28) =    14.95920 eV ==== 
     psi = 0.045*[#  10]+0.016*[#  21]+0.016*[#  37]+0.009*[#  17]+0.009*[#  33]
          +0.005*[#  32]+0.005*[#  48]+0.003*[#  18]+0.003*[#  34]+0.002*[#  22]
          +0.002*[#  38]
    |psi|^2 = 0.115
==== e(  29) =    15.69167 eV ==== 
     psi = 0.109*[#  22]+0.109*[#  38]+0.064*[#  25]+0.064*[#  41]+0.039*[#   6]
          +0.036*[#  23]+0.036*[#  39]+0.028*[#  10]+0.021*[#  24]+0.021*[#  40]
          +0.016*[#  14]+0.013*[#   7]+0.006*[#  32]+0.006*[#  48]+0.005*[#  13]
          +0.001*[#  18]+0.001*[#  34]+0.001*[#  26]+0.001*[#  30]+0.001*[#  42]
          +0.001*[#  46]
    |psi|^2 = 0.584
==== e(  30) =    15.74338 eV ==== 
     psi = 0.205*[#  23]+0.205*[#  39]+0.096*[#  24]+0.096*[#  40]+0.068*[#  22]
          +0.068*[#  38]+0.063*[#   7]+0.032*[#  25]+0.032*[#  41]+0.031*[#  13]
          +0.021*[#   6]+0.010*[#  14]+0.002*[#  29]+0.002*[#  45]
    |psi|^2 = 0.932
==== e(  31) =    15.74514 eV ==== 
     psi = 0.093*[#  22]+0.093*[#  38]+0.032*[#  25]+0.032*[#  41]+0.031*[#  23]
          +0.031*[#  39]+0.030*[#  10]+0.023*[#   6]+0.014*[#  14]+0.011*[#  24]
          +0.011*[#  40]+0.008*[#  32]+0.008*[#  48]+0.008*[#   7]+0.005*[#  13]
          +0.002*[#  21]+0.002*[#  37]
    |psi|^2 = 0.439
==== e(  32) =    15.96809 eV ==== 
     psi = 0.046*[#  16]+0.016*[#   1]+0.007*[#  17]+0.007*[#  33]+0.006*[#  26]
          +0.006*[#  42]+0.004*[#  22]+0.004*[#  38]+0.003*[#  32]+0.003*[#  48]
          +0.003*[#  21]+0.003*[#  37]+0.001*[#  23]+0.001*[#  39]
    |psi|^2 = 0.110
==== e(  33) =    16.37529 eV ==== 
     psi = 0.315*[#  23]+0.314*[#  39]+0.105*[#  22]+0.105*[#  38]+0.059*[#   8]
          +0.020*[#   9]+0.012*[#  24]+0.012*[#  40]+0.005*[#   4]+0.004*[#  25]
          +0.004*[#  41]+0.002*[#  12]+0.002*[#   3]
    |psi|^2 = 0.960
==== e(  34) =    16.38677 eV ==== 
     psi = 0.309*[#  22]+0.309*[#  38]+0.103*[#  23]+0.103*[#  39]+0.058*[#   9]
          +0.019*[#   8]+0.012*[#  25]+0.012*[#  41]+0.005*[#   3]+0.004*[#  24]
          +0.004*[#  40]+0.002*[#  11]+0.002*[#   4]+0.002*[#  16]+0.002*[#   2]
          
    |psi|^2 = 0.949
==== e(  35) =    19.00361 eV ==== 
     psi = 0.016*[#  21]+0.016*[#  37]+0.014*[#  32]+0.014*[#  48]+0.009*[#   5]
          +0.001*[#  16]
    |psi|^2 = 0.073
==== e(  36) =    19.27483 eV ==== 
     psi = 0.023*[#  21]+0.023*[#  37]+0.015*[#  17]+0.015*[#  33]+0.009*[#  26]
          +0.009*[#  42]+0.006*[#  32]+0.006*[#  48]+0.005*[#   2]
    |psi|^2 = 0.117
==== e(  37) =    20.70119 eV ==== 
     psi = 0.020*[#   2]+0.014*[#  21]+0.014*[#  37]+0.007*[#  10]+0.004*[#  17]
          +0.004*[#  33]+0.002*[#  26]+0.002*[#  42]
    |psi|^2 = 0.066
==== e(  38) =    21.19743 eV ==== 
     psi = 0.059*[#  16]+0.010*[#   1]+0.004*[#  17]+0.004*[#  33]+0.003*[#  26]
          +0.003*[#  32]+0.003*[#  42]+0.003*[#  48]
    |psi|^2 = 0.090
==== e(  39) =    22.84538 eV ==== 
     psi = 0.136*[#   3]+0.045*[#   4]+0.014*[#  30]+0.014*[#  46]+0.007*[#  11]
          +0.005*[#  29]+0.005*[#  45]+0.004*[#  22]+0.004*[#  38]+0.002*[#  12]
          +0.001*[#  23]+0.001*[#  39]
    |psi|^2 = 0.250
==== e(  40) =    22.86669 eV ==== 
     psi = 0.141*[#   4]+0.047*[#   3]+0.015*[#  29]+0.015*[#  45]+0.007*[#  12]
          +0.005*[#  30]+0.005*[#  46]+0.004*[#  23]+0.004*[#  39]+0.002*[#  11]
          +0.001*[#  22]+0.001*[#  38]+0.001*[#   8]
    |psi|^2 = 0.256
==== e(  41) =    24.08771 eV ==== 
     psi = 0.011*[#  10]+0.007*[#  14]+0.002*[#   6]+0.002*[#  13]+0.002*[#  25]
          +0.002*[#  41]+0.002*[#  22]+0.002*[#  30]+0.002*[#  38]+0.002*[#  46]
          +0.001*[#   2]+0.001*[#  21]+0.001*[#  27]+0.001*[#  37]+0.001*[#  43]
          
    |psi|^2 = 0.049
==== e(  42) =    24.35257 eV ==== 
     psi = 0.011*[#  13]+0.004*[#  14]+0.003*[#   7]+0.003*[#  24]+0.003*[#  29]
          +0.003*[#  40]+0.003*[#  45]+0.003*[#  23]+0.003*[#  39]+0.002*[#  28]
          +0.002*[#  44]+0.001*[#   6]
    |psi|^2 = 0.050
==== e(  43) =    24.80825 eV ==== 
     psi = 0.007*[#   3]+0.005*[#  16]+0.002*[#   4]+0.002*[#  22]+0.002*[#  38]
          
    |psi|^2 = 0.027
==== e(  44) =    24.84481 eV ==== 
     psi = 0.020*[#  10]+0.006*[#  14]+0.002*[#  13]+0.002*[#  21]+0.002*[#  37]
          
    |psi|^2 = 0.042
==== e(  45) =    25.14714 eV ==== 
     psi = 0.007*[#  14]+0.005*[#  10]+0.002*[#  13]+0.002*[#  25]+0.002*[#  41]
          +0.001*[#   6]+0.001*[#  22]+0.001*[#  27]+0.001*[#  38]+0.001*[#  43]
          
    |psi|^2 = 0.032
==== e(  46) =    25.14807 eV ==== 
     psi = 0.010*[#   3]+0.004*[#  21]+0.004*[#  37]+0.003*[#   4]+0.003*[#   5]
          +0.003*[#  16]+0.002*[#  32]+0.002*[#  48]
    |psi|^2 = 0.035
==== e(  47) =    25.15358 eV ==== 
     psi = 0.027*[#   4]+0.009*[#   3]+0.003*[#  23]+0.003*[#  39]+0.002*[#  28]
          +0.002*[#  44]+0.001*[#  22]+0.001*[#  38]
    |psi|^2 = 0.055
==== e(  48) =    25.29373 eV ==== 
     psi = 0.012*[#  13]+0.010*[#   2]+0.004*[#  14]+0.002*[#  24]+0.002*[#  40]
          +0.002*[#  28]+0.002*[#  44]+0.001*[#   7]+0.001*[#  23]+0.001*[#  39]
          
    |psi|^2 = 0.045
==== e(  49) =    25.35454 eV ==== 
     psi = 0.018*[#   3]+0.018*[#  16]+0.006*[#   4]+0.003*[#  21]+0.003*[#  37]
          +0.002*[#   5]+0.001*[#   1]
    |psi|^2 = 0.059
==== e(  50) =    25.78538 eV ==== 
     psi = 0.018*[#   2]+0.002*[#  16]+0.002*[#   3]+0.001*[#  22]+0.001*[#  38]
          
    |psi|^2 = 0.032
==== e(  51) =    25.94985 eV ==== 
     psi = 0.022*[#   4]+0.007*[#   3]+0.001*[#  23]+0.001*[#  29]+0.001*[#  39]
          +0.001*[#  45]
    |psi|^2 = 0.039
==== e(  52) =    25.96826 eV ==== 
     psi = 0.004*[#  14]+0.002*[#   2]+0.001*[#  13]
    |psi|^2 = 0.016
==== e(  53) =    25.98874 eV ==== 
     psi = 0.014*[#   3]+0.008*[#  16]+0.005*[#   4]
    |psi|^2 = 0.034
==== e(  54) =    26.38313 eV ==== 
     psi = 0.014*[#   2]+0.008*[#  16]+0.002*[#   3]
    |psi|^2 = 0.030
==== e(  55) =    26.47630 eV ==== 
     psi = 0.031*[#   4]+0.010*[#   3]+0.001*[#  29]+0.001*[#  45]
    |psi|^2 = 0.052
==== e(  56) =    26.59977 eV ==== 
     psi = 0.041*[#   3]+0.014*[#   4]+0.005*[#  16]+0.002*[#   2]+0.002*[#  30]
          +0.002*[#  46]
    |psi|^2 = 0.071
==== e(  57) =    26.64320 eV ==== 
     psi = 0.009*[#  10]+0.004*[#  14]+0.001*[#  13]
    |psi|^2 = 0.024
==== e(  58) =    26.97527 eV ==== 
     psi = 0.008*[#  13]+0.003*[#  14]+0.002*[#  29]+0.002*[#  45]+0.001*[#  23]
          +0.001*[#  39]+0.001*[#   7]+0.001*[#  28]+0.001*[#  44]
    |psi|^2 = 0.026
==== e(  59) =    27.02284 eV ==== 
     psi = 0.007*[#   3]+0.005*[#  16]+0.002*[#   4]
    |psi|^2 = 0.022
==== e(  60) =    27.04856 eV ==== 
     psi = 0.005*[#  26]+0.005*[#  42]+0.004*[#  21]+0.004*[#  37]+0.004*[#  10]
          
    |psi|^2 = 0.028
==== e(  61) =    27.29990 eV ==== 
     psi = 0.085*[#   4]+0.028*[#   3]+0.003*[#  29]+0.003*[#  45]+0.002*[#  23]
          +0.002*[#  39]+0.001*[#  30]+0.001*[#  46]
    |psi|^2 = 0.133
==== e(  62) =    27.32489 eV ==== 
     psi = 0.028*[#   2]+0.007*[#  14]+0.003*[#  10]+0.002*[#  13]+0.002*[#  21]
          +0.002*[#  37]+0.001*[#  27]+0.001*[#  43]
    |psi|^2 = 0.051
==== e(  63) =    27.38718 eV ==== 
     psi = 0.062*[#   3]+0.021*[#   4]+0.003*[#  16]+0.002*[#   2]+0.002*[#  30]
          +0.002*[#  46]+0.001*[#  11]
    |psi|^2 = 0.102
==== e(  64) =    27.64317 eV ==== 
     psi = 0.004*[#  10]+0.003*[#  14]+0.001*[#  13]
    |psi|^2 = 0.019
==== e(  65) =    27.69336 eV ==== 
     psi = 0.011*[#  13]+0.004*[#  14]+0.002*[#  28]+0.002*[#  44]+0.001*[#  24]
          +0.001*[#  40]
    |psi|^2 = 0.026
==== e(  66) =    28.34341 eV ==== 
     psi = 0.005*[#  14]+0.002*[#  13]
    |psi|^2 = 0.012
==== e(  67) =    28.70894 eV ==== 
     psi = 0.031*[#   3]+0.010*[#   4]+0.004*[#  11]+0.002*[#  27]+0.002*[#  43]
          +0.001*[#  12]
    |psi|^2 = 0.060
==== e(  68) =    28.83233 eV ==== 
     psi = 0.043*[#   3]+0.014*[#   4]+0.005*[#  11]+0.003*[#  16]+0.002*[#  12]
          +0.002*[#  27]+0.002*[#  43]
    |psi|^2 = 0.075
==== e(  69) =    28.85174 eV ==== 
     psi = 0.074*[#   4]+0.025*[#   3]+0.012*[#  12]+0.004*[#  11]+0.004*[#  28]
          +0.004*[#  44]+0.001*[#  27]+0.001*[#  43]
    |psi|^2 = 0.130
==== e(  70) =    29.47719 eV ==== 
     psi = 0.025*[#   2]+0.023*[#   3]+0.008*[#   4]+0.008*[#  11]+0.004*[#  26]
          +0.004*[#  42]+0.003*[#  12]
    |psi|^2 = 0.079
==== e(  71) =    29.54708 eV ==== 
     psi = 0.013*[#  10]+0.009*[#  14]+0.003*[#  13]+0.002*[#  22]+0.002*[#  30]
          +0.002*[#  38]+0.002*[#  46]+0.001*[#  21]+0.001*[#  37]+0.001*[#   6]
          
    |psi|^2 = 0.046
==== e(  72) =    29.86210 eV ==== 
     psi = 0.078*[#   4]+0.026*[#   3]+0.023*[#   2]+0.009*[#  12]+0.003*[#  11]
          +0.002*[#  23]+0.002*[#  39]+0.001*[#  29]+0.001*[#  45]
    |psi|^2 = 0.150
==== e(  73) =    29.90526 eV ==== 
     psi = 0.022*[#  13]+0.007*[#  14]+0.004*[#  23]+0.004*[#  39]+0.004*[#  29]
          +0.004*[#  45]+0.002*[#  28]+0.002*[#  44]+0.002*[#   7]+0.001*[#  22]
          +0.001*[#  30]+0.001*[#  38]+0.001*[#  46]
    |psi|^2 = 0.063
==== e(  74) =    29.94328 eV ==== 
     psi = 0.044*[#   3]+0.015*[#   4]+0.006*[#  11]+0.002*[#  12]+0.002*[#  22]
          +0.002*[#  38]+0.001*[#  30]+0.001*[#  46]
    |psi|^2 = 0.078
==== e(  75) =    30.28719 eV ==== 
     psi = 0.014*[#  10]+0.014*[#  14]+0.005*[#  13]+0.002*[#  22]+0.002*[#  38]
          +0.002*[#  27]+0.002*[#  30]+0.002*[#  43]+0.002*[#  46]+0.001*[#  21]
          +0.001*[#  37]
    |psi|^2 = 0.052
==== e(  76) =    30.84181 eV ==== 
     psi = 0.044*[#   2]+0.021*[#  14]+0.007*[#  13]+0.003*[#  27]+0.003*[#  43]
          +0.003*[#  10]+0.001*[#  25]+0.001*[#  41]+0.001*[#  28]+0.001*[#  44]
          
    |psi|^2 = 0.094
==== e(  77) =    30.93684 eV ==== 
     psi = 0.029*[#  13]+0.010*[#  14]+0.004*[#  28]+0.004*[#  44]+0.002*[#  24]
          +0.002*[#  40]+0.001*[#  27]+0.001*[#  43]
    |psi|^2 = 0.060
==== e(  78) =    31.03951 eV ==== 
     psi = 0.014*[#   3]+0.012*[#  16]+0.006*[#  26]+0.006*[#  42]+0.005*[#   4]
          +0.003*[#   5]+0.002*[#  21]+0.002*[#  37]
    |psi|^2 = 0.052
==== e(  79) =    31.90495 eV ==== 
     psi = 0.008*[#  14]+0.007*[#  10]+0.003*[#  13]
    |psi|^2 = 0.024
==== e(  80) =    32.00439 eV ==== 
     psi = 0.055*[#  11]+0.047*[#   3]+0.018*[#  12]+0.016*[#   4]+0.014*[#   2]
          +0.004*[#  27]+0.004*[#  43]+0.003*[#  30]+0.003*[#  46]+0.002*[#  16]
          +0.001*[#  28]+0.001*[#  44]+0.001*[#  29]+0.001*[#  45]
    |psi|^2 = 0.174
==== e(  81) =    32.02505 eV ==== 
     psi = 0.059*[#  12]+0.053*[#   4]+0.020*[#  11]+0.018*[#   3]+0.005*[#  28]
          +0.005*[#  44]+0.004*[#  29]+0.004*[#  45]+0.002*[#  27]+0.002*[#  43]
          +0.001*[#  30]+0.001*[#  46]
    |psi|^2 = 0.175
==== e(  82) =    32.35217 eV ==== 
     psi = 0.018*[#   2]+0.006*[#  16]+0.004*[#  26]+0.004*[#  42]+0.002*[#  11]
          +0.002*[#   3]+0.001*[#  27]+0.001*[#  43]
    |psi|^2 = 0.042
==== e(  83) =    33.40126 eV ==== 
     psi = 0.037*[#  14]+0.013*[#  10]+0.012*[#  13]+0.007*[#  22]+0.007*[#  38]
          +0.003*[#  30]+0.003*[#  46]+0.002*[#  23]+0.002*[#  39]+0.001*[#  21]
          +0.001*[#  27]+0.001*[#  37]+0.001*[#  43]+0.001*[#   6]+0.001*[#  29]
          +0.001*[#  45]
    |psi|^2 = 0.101
==== e(  84) =    33.49801 eV ==== 
     psi = 0.016*[#  12]+0.012*[#   4]+0.005*[#  11]+0.004*[#   3]+0.004*[#  28]
          +0.004*[#  44]+0.002*[#   2]+0.001*[#  15]+0.001*[#  27]+0.001*[#  43]
          
    |psi|^2 = 0.053
==== e(  85) =    33.54956 eV ==== 
     psi = 0.017*[#  11]+0.010*[#   3]+0.006*[#  12]+0.004*[#  16]+0.003*[#   4]
          +0.003*[#  27]+0.003*[#  43]
    |psi|^2 = 0.050
==== e(  86) =    33.63940 eV ==== 
     psi = 0.071*[#  13]+0.024*[#  14]+0.012*[#  23]+0.012*[#  39]+0.010*[#   2]
          +0.004*[#  29]+0.004*[#  45]+0.004*[#  22]+0.004*[#  38]+0.003*[#  28]
          +0.003*[#  44]+0.001*[#   7]+0.001*[#  20]+0.001*[#  30]+0.001*[#  36]
          +0.001*[#  46]
    |psi|^2 = 0.160
==== e(  87) =    33.91078 eV ==== 
     psi = 0.010*[#  16]+0.003*[#  11]+0.003*[#  26]+0.003*[#  42]+0.001*[#  32]
          +0.001*[#  48]+0.001*[#  21]+0.001*[#  37]
    |psi|^2 = 0.031
==== e(  88) =    34.04779 eV ==== 
     psi = 0.031*[#  14]+0.017*[#  10]+0.010*[#  13]+0.004*[#  22]+0.004*[#  38]
          +0.003*[#  21]+0.003*[#  37]+0.001*[#  23]+0.001*[#  39]+0.001*[#  30]
          +0.001*[#  46]
    |psi|^2 = 0.087
==== e(  89) =    34.39070 eV ==== 
     psi = 0.009*[#  26]+0.009*[#  42]+0.006*[#  14]+0.006*[#  10]+0.002*[#  13]
          
    |psi|^2 = 0.038
==== e(  90) =    35.06965 eV ==== 
     psi = 0.034*[#  14]+0.011*[#  13]+0.006*[#  10]+0.003*[#  30]+0.003*[#  46]
          +0.003*[#  27]+0.003*[#  43]+0.002*[#  25]+0.002*[#  41]+0.002*[#  22]
          +0.002*[#  38]+0.001*[#  29]+0.001*[#  45]
    |psi|^2 = 0.081
==== e(  91) =    35.08671 eV ==== 
     psi = 0.044*[#  13]+0.015*[#  14]+0.003*[#  29]+0.003*[#  45]+0.003*[#  28]
          +0.003*[#  44]+0.003*[#  24]+0.003*[#  40]+0.002*[#  23]+0.002*[#  39]
          
    |psi|^2 = 0.089
==== e(  92) =    35.34459 eV ==== 
     psi = 0.014*[#  11]+0.006*[#   3]+0.005*[#  26]+0.005*[#  42]+0.005*[#  12]
          +0.002*[#  16]+0.002*[#   4]
    |psi|^2 = 0.048
==== e(  93) =    35.45052 eV ==== 
     psi = 0.094*[#  12]+0.031*[#  11]+0.005*[#  29]+0.005*[#  45]+0.004*[#  15]
          +0.004*[#  28]+0.004*[#  44]+0.003*[#  24]+0.003*[#  40]+0.002*[#  30]
          +0.002*[#  46]+0.001*[#  27]+0.001*[#  43]
    |psi|^2 = 0.162
==== e(  94) =    35.54393 eV ==== 
     psi = 0.080*[#  11]+0.027*[#  12]+0.004*[#  30]+0.004*[#  46]+0.003*[#  25]
          +0.003*[#  41]+0.003*[#  27]+0.003*[#  43]+0.001*[#  29]+0.001*[#  45]
          
    |psi|^2 = 0.136
==== e(  95) =    36.38337 eV ==== 
     psi = 0.038*[#  10]+0.008*[#  14]+0.003*[#  13]+0.002*[#  26]+0.002*[#  42]
          +0.002*[#  21]+0.002*[#  37]+0.002*[#  32]+0.002*[#  48]
    |psi|^2 = 0.063
==== e(  96) =    36.50896 eV ==== 
     psi = 0.029*[#  11]+0.010*[#  12]+0.004*[#  26]+0.004*[#  42]+0.002*[#   3]
          +0.001*[#  25]+0.001*[#  41]
    |psi|^2 = 0.061
==== e(  97) =    36.93924 eV ==== 
     psi = 0.134*[#  12]+0.045*[#  11]+0.023*[#   4]+0.022*[#  15]+0.008*[#   3]
          +0.006*[#  24]+0.006*[#  40]+0.002*[#  25]+0.002*[#  41]+0.002*[#  29]
          +0.002*[#  45]+0.001*[#  23]+0.001*[#  39]+0.001*[#  28]+0.001*[#  44]
          
    |psi|^2 = 0.263
==== e(  98) =    37.18208 eV ==== 
     psi = 0.103*[#  11]+0.034*[#  12]+0.021*[#   3]+0.008*[#   2]+0.007*[#   4]
          +0.005*[#  25]+0.005*[#  41]+0.002*[#  24]+0.002*[#  26]+0.002*[#  40]
          +0.002*[#  42]+0.001*[#  22]+0.001*[#  30]+0.001*[#  38]+0.001*[#  46]
          
    |psi|^2 = 0.202
==== e(  99) =    37.56438 eV ==== 
     psi = 0.052*[#  13]+0.017*[#  14]+0.009*[#  23]+0.009*[#  39]+0.003*[#  22]
          +0.003*[#  38]
    |psi|^2 = 0.102
==== e( 100) =    37.57286 eV ==== 
     psi = 0.045*[#  14]+0.021*[#   2]+0.015*[#  13]+0.008*[#  22]+0.008*[#  38]
          +0.006*[#  10]+0.003*[#  23]+0.003*[#  39]+0.001*[#  30]+0.001*[#  46]
          
    |psi|^2 = 0.119

 k =   0.0278355396 -0.0160708545  0.0000000000
==== e(   1) =   -15.56403 eV ==== 
     psi = 0.425*[#   1]+0.271*[#  17]+0.271*[#  33]+0.009*[#  18]+0.009*[#  34]
          +0.003*[#   3]+0.002*[#  21]+0.002*[#  37]+0.001*[#  16]+0.001*[#   4]
          
    |psi|^2 = 0.996
==== e(   2) =   -14.34113 eV ==== 
     psi = 0.277*[#  17]+0.277*[#  33]+0.016*[#  21]+0.016*[#  37]+0.003*[#   2]
          +0.001*[#   6]
    |psi|^2 = 0.591
==== e(   3) =    -7.00482 eV ==== 
     psi = 0.412*[#   2]+0.320*[#   5]+0.030*[#  21]+0.029*[#  37]+0.026*[#  17]
          +0.026*[#  33]+0.022*[#   1]
    |psi|^2 = 0.867
==== e(   4) =    -3.76688 eV ==== 
     psi = 0.487*[#   9]+0.162*[#   8]+0.111*[#  19]+0.111*[#  35]+0.037*[#  20]
          +0.037*[#  36]+0.017*[#  22]+0.017*[#  38]+0.006*[#  23]+0.006*[#  39]
          +0.001*[#  25]+0.001*[#  41]+0.001*[#   1]
    |psi|^2 = 0.999
==== e(   5) =    -3.72884 eV ==== 
     psi = 0.490*[#   8]+0.163*[#   9]+0.111*[#  20]+0.111*[#  36]+0.037*[#  19]
          +0.037*[#  35]+0.017*[#  23]+0.017*[#  39]+0.006*[#  22]+0.006*[#  38]
          +0.001*[#  24]+0.001*[#  40]
    |psi|^2 = 0.999
==== e(   6) =    -3.19405 eV ==== 
     psi = 0.051*[#   6]+0.037*[#  18]+0.037*[#  34]+0.017*[#   7]+0.013*[#  19]
          +0.013*[#  35]+0.008*[#  10]+0.004*[#  20]+0.004*[#  36]+0.002*[#  21]
          +0.002*[#  37]+0.001*[#  25]+0.001*[#  41]
    |psi|^2 = 0.195
==== e(   7) =    -2.57646 eV ==== 
     psi = 0.437*[#  18]+0.437*[#  34]+0.406*[#   7]+0.150*[#  20]+0.150*[#  36]
          +0.135*[#   6]+0.050*[#  19]+0.050*[#  35]+0.013*[#  24]+0.013*[#  40]
          +0.006*[#  23]+0.006*[#  39]+0.004*[#  13]+0.004*[#  25]+0.004*[#  41]
          +0.002*[#  22]+0.002*[#  38]+0.002*[#   2]+0.001*[#  14]
    |psi|^2 = 1.875
==== e(   8) =    -2.50342 eV ==== 
     psi = 0.351*[#   6]+0.139*[#  19]+0.139*[#  35]+0.117*[#   7]+0.046*[#  20]
          +0.046*[#  36]+0.013*[#  18]+0.013*[#  34]+0.011*[#  25]+0.011*[#  41]
          +0.006*[#  22]+0.006*[#  38]+0.004*[#  14]+0.004*[#  24]+0.004*[#  40]
          +0.002*[#  23]+0.002*[#  39]+0.001*[#  21]+0.001*[#  37]+0.001*[#  13]
          
    |psi|^2 = 0.921
==== e(   9) =    -1.25207 eV ==== 
     psi = 0.493*[#   5]+0.193*[#  18]+0.193*[#  34]+0.042*[#  21]+0.042*[#  37]
          +0.007*[#  17]+0.007*[#  33]+0.003*[#   1]
    |psi|^2 = 0.985
==== e(  10) =     1.97497 eV ==== 
     psi = 0.242*[#   6]+0.205*[#  19]+0.205*[#  35]+0.081*[#   7]+0.068*[#  20]
          +0.068*[#  36]+0.036*[#  25]+0.036*[#  41]+0.012*[#  24]+0.012*[#  40]
          +0.010*[#  14]+0.003*[#  13]+0.003*[#  17]+0.003*[#  33]+0.002*[#  22]
          +0.002*[#  38]
    |psi|^2 = 0.996
==== e(  11) =     2.02144 eV ==== 
     psi = 0.240*[#   7]+0.210*[#  20]+0.210*[#  36]+0.080*[#   6]+0.070*[#  19]
          +0.070*[#  35]+0.036*[#  24]+0.036*[#  40]+0.012*[#  25]+0.012*[#  41]
          +0.010*[#  13]+0.003*[#  14]+0.002*[#  23]+0.002*[#  39]
    |psi|^2 = 0.998
==== e(  12) =     2.26484 eV ==== 
     psi = 0.251*[#  19]+0.251*[#  35]+0.205*[#  18]+0.205*[#  34]+0.191*[#   9]
          +0.084*[#  20]+0.084*[#  36]+0.064*[#   8]+0.012*[#  22]+0.012*[#  38]
          +0.008*[#  25]+0.008*[#  41]+0.004*[#  11]+0.004*[#   3]+0.004*[#  23]
          +0.004*[#  39]+0.003*[#  24]+0.003*[#  40]+0.002*[#   1]+0.002*[#  17]
          +0.002*[#  33]+0.001*[#   4]+0.001*[#  12]
    |psi|^2 = 1.407
==== e(  13) =     2.29117 eV ==== 
     psi = 0.255*[#  20]+0.255*[#  36]+0.192*[#   8]+0.085*[#  19]+0.085*[#  35]
          +0.064*[#   9]+0.011*[#  23]+0.011*[#  39]+0.008*[#  24]+0.008*[#  40]
          +0.005*[#  12]+0.004*[#   4]+0.004*[#  22]+0.004*[#  38]+0.003*[#  25]
          +0.003*[#  41]+0.001*[#   3]+0.002*[#  11]
    |psi|^2 = 0.999
==== e(  14) =     4.48732 eV ==== 
     psi = 0.099*[#   1]+0.085*[#  18]+0.085*[#  34]+0.042*[#   5]+0.033*[#  17]
          +0.033*[#  33]+0.017*[#  21]+0.017*[#  37]+0.001*[#   2]+0.001*[#  19]
          +0.001*[#  35]
    |psi|^2 = 0.417
==== e(  15) =     4.69921 eV ==== 
     psi = 0.063*[#  21]+0.063*[#  37]+0.018*[#  17]+0.018*[#  33]+0.004*[#  18]
          +0.004*[#  34]+0.002*[#  10]
    |psi|^2 = 0.172
==== e(  16) =     5.43376 eV ==== 
     psi = 0.286*[#   1]+0.108*[#  17]+0.108*[#  33]+0.043*[#  16]+0.036*[#  21]
          +0.036*[#  37]+0.003*[#   3]+0.001*[#  19]+0.001*[#  35]+0.001*[#  18]
          +0.001*[#  34]
    |psi|^2 = 0.628
==== e(  17) =     5.80004 eV ==== 
     psi = 0.100*[#  21]+0.100*[#  37]+0.042*[#   5]+0.032*[#  16]+0.027*[#   1]
          +0.013*[#  17]+0.013*[#  33]+0.004*[#   3]+0.002*[#  18]+0.002*[#  34]
          +0.001*[#   4]
    |psi|^2 = 0.338
==== e(  18) =     6.97507 eV ==== 
     psi = 0.055*[#  21]+0.055*[#  37]+0.010*[#  17]+0.010*[#  33]+0.004*[#   2]
          +0.002*[#  10]
    |psi|^2 = 0.137
==== e(  19) =     8.31240 eV ==== 
     psi = 0.252*[#  21]+0.252*[#  37]+0.137*[#  17]+0.137*[#  33]+0.063*[#   2]
          +0.011*[#  10]+0.002*[#  19]+0.002*[#  35]
    |psi|^2 = 0.860
==== e(  20) =     8.34890 eV ==== 
     psi = 0.050*[#  21]+0.051*[#  37]+0.039*[#   5]+0.031*[#   1]+0.008*[#  17]
          +0.008*[#  33]+0.006*[#  16]
    |psi|^2 = 0.197
==== e(  21) =     9.83302 eV ==== 
     psi = 0.321*[#  25]+0.321*[#  41]+0.107*[#  24]+0.107*[#  40]+0.019*[#   3]
          +0.018*[#  11]+0.014*[#  22]+0.014*[#  38]+0.006*[#   4]+0.006*[#  12]
          +0.005*[#  19]+0.005*[#  23]+0.005*[#  35]+0.005*[#  39]+0.004*[#   9]
          +0.002*[#   1]+0.002*[#  20]+0.002*[#  36]+0.001*[#   8]+0.001*[#  21]
          +0.001*[#  37]
    |psi|^2 = 0.970
==== e(  22) =     9.91314 eV ==== 
     psi = 0.328*[#  24]+0.328*[#  40]+0.109*[#  25]+0.109*[#  41]+0.024*[#   4]
          +0.019*[#   2]+0.019*[#  12]+0.013*[#  23]+0.013*[#  39]+0.008*[#   3]
          +0.006*[#  11]+0.005*[#  20]+0.005*[#  36]+0.005*[#   8]+0.005*[#  18]
          +0.005*[#  34]+0.004*[#  22]+0.004*[#  38]+0.002*[#   9]+0.002*[#  19]
          +0.002*[#  35]
    |psi|^2 = 1.017
==== e(  23) =    10.48506 eV ==== 
     psi = 0.024*[#  21]+0.024*[#  37]+0.017*[#  17]+0.017*[#  33]+0.004*[#  10]
          
    |psi|^2 = 0.091
==== e(  24) =    11.78769 eV ==== 
     psi = 0.097*[#  21]+0.097*[#  37]+0.047*[#   1]+0.035*[#   5]+0.012*[#  17]
          +0.012*[#  33]+0.008*[#   2]+0.005*[#   3]+0.005*[#  16]+0.004*[#  25]
          +0.004*[#  41]+0.002*[#   4]+0.002*[#  18]+0.002*[#  34]+0.001*[#  24]
          +0.001*[#  32]+0.001*[#  40]+0.001*[#  48]
    |psi|^2 = 0.337
==== e(  25) =    12.03808 eV ==== 
     psi = 0.209*[#  25]+0.209*[#  41]+0.115*[#  22]+0.115*[#  38]+0.070*[#  24]
          +0.070*[#  40]+0.038*[#  23]+0.038*[#  39]+0.027*[#   6]+0.021*[#  14]
          +0.009*[#   7]+0.008*[#  19]+0.008*[#  35]+0.007*[#  13]+0.003*[#  20]
          +0.003*[#  36]+0.002*[#  10]+0.002*[#   2]
    |psi|^2 = 0.955
==== e(  26) =    12.14596 eV ==== 
     psi = 0.213*[#  24]+0.213*[#  40]+0.119*[#  23]+0.119*[#  39]+0.071*[#  25]
          +0.071*[#  41]+0.040*[#  22]+0.040*[#  38]+0.026*[#   7]+0.022*[#  13]
          +0.009*[#   6]+0.008*[#  18]+0.008*[#  34]+0.008*[#  20]+0.008*[#  36]
          +0.007*[#  14]+0.003*[#  19]+0.003*[#  35]
    |psi|^2 = 0.987
==== e(  27) =    12.91858 eV ==== 
     psi = 0.082*[#  21]+0.082*[#  37]+0.019*[#  16]+0.006*[#   3]+0.005*[#   5]
          +0.005*[#  22]+0.005*[#  38]+0.003*[#  26]+0.003*[#  42]+0.002*[#   4]
          +0.002*[#  25]+0.002*[#  41]+0.002*[#  23]+0.002*[#  39]+0.001*[#   9]
          +0.001*[#   1]
    |psi|^2 = 0.226
==== e(  28) =    14.96943 eV ==== 
     psi = 0.039*[#  10]+0.015*[#  21]+0.015*[#  37]+0.009*[#  22]+0.009*[#  38]
          +0.008*[#  17]+0.008*[#  33]+0.004*[#  32]+0.004*[#  48]+0.003*[#  23]
          +0.003*[#  39]+0.003*[#  18]+0.003*[#  34]+0.001*[#   6]+0.001*[#  14]
          
    |psi|^2 = 0.128
==== e(  29) =    15.63039 eV ==== 
     psi = 0.166*[#  22]+0.166*[#  38]+0.091*[#  25]+0.091*[#  41]+0.056*[#   6]
          +0.055*[#  23]+0.055*[#  39]+0.030*[#  24]+0.030*[#  40]+0.024*[#  14]
          +0.019*[#   7]+0.011*[#  10]+0.008*[#  13]+0.006*[#   2]+0.003*[#  21]
          +0.003*[#  37]+0.002*[#  17]+0.002*[#  33]+0.002*[#  30]+0.002*[#  46]
          +0.001*[#  32]+0.001*[#  48]
    |psi|^2 = 0.829
==== e(  30) =    15.76899 eV ==== 
     psi = 0.204*[#  23]+0.204*[#  39]+0.097*[#  24]+0.097*[#  40]+0.068*[#  22]
          +0.068*[#  38]+0.063*[#   7]+0.032*[#  25]+0.032*[#  41]+0.030*[#  13]
          +0.021*[#   6]+0.010*[#  14]+0.002*[#  29]+0.002*[#  45]
    |psi|^2 = 0.932
==== e(  31) =    15.83724 eV ==== 
     psi = 0.052*[#  10]+0.028*[#  22]+0.028*[#  38]+0.013*[#  32]+0.013*[#  48]
          +0.009*[#  23]+0.009*[#  39]+0.005*[#  25]+0.005*[#  41]+0.005*[#  14]
          +0.004*[#   6]+0.002*[#  21]+0.002*[#  37]+0.002*[#  13]+0.002*[#  24]
          +0.002*[#  40]+0.001*[#   7]+0.001*[#  26]+0.001*[#  42]
    |psi|^2 = 0.185
==== e(  32) =    15.97861 eV ==== 
     psi = 0.042*[#  16]+0.016*[#  22]+0.016*[#  38]+0.015*[#   1]+0.007*[#  17]
          +0.007*[#  33]+0.005*[#  23]+0.005*[#  26]+0.005*[#  39]+0.005*[#  42]
          +0.003*[#  32]+0.003*[#  48]+0.003*[#   9]+0.002*[#  21]+0.002*[#  37]
          
    |psi|^2 = 0.139
==== e(  33) =    16.33980 eV ==== 
     psi = 0.314*[#  23]+0.314*[#  39]+0.105*[#  22]+0.105*[#  38]+0.058*[#   8]
          +0.019*[#   9]+0.012*[#  24]+0.012*[#  40]+0.005*[#   4]+0.004*[#  25]
          +0.004*[#  41]+0.002*[#  12]+0.002*[#   3]
    |psi|^2 = 0.959
==== e(  34) =    16.37559 eV ==== 
     psi = 0.290*[#  22]+0.290*[#  38]+0.097*[#  23]+0.097*[#  39]+0.054*[#   9]
          +0.018*[#   8]+0.011*[#  25]+0.011*[#  41]+0.007*[#  16]+0.006*[#   3]
          +0.004*[#  24]+0.004*[#  40]+0.002*[#   4]+0.002*[#  21]+0.002*[#  37]
          +0.002*[#   2]+0.002*[#  11]
    |psi|^2 = 0.905
==== e(  35) =    19.02515 eV ==== 
     psi = 0.016*[#  21]+0.016*[#  37]+0.014*[#  32]+0.014*[#  48]+0.009*[#   5]
          +0.001*[#  16]
    |psi|^2 = 0.075
==== e(  36) =    19.38601 eV ==== 
     psi = 0.022*[#  21]+0.022*[#  37]+0.014*[#  17]+0.014*[#  33]+0.008*[#  26]
          +0.008*[#  42]+0.006*[#   2]+0.006*[#  32]+0.006*[#  48]+0.004*[#  22]
          +0.004*[#  38]+0.003*[#  25]+0.003*[#  41]+0.002*[#   6]+0.002*[#  14]
          +0.001*[#  23]+0.001*[#  39]
    |psi|^2 = 0.130
==== e(  37) =    20.71448 eV ==== 
     psi = 0.020*[#   2]+0.014*[#  21]+0.014*[#  37]+0.007*[#  10]+0.004*[#  17]
          +0.004*[#  33]+0.002*[#  26]+0.002*[#  42]
    |psi|^2 = 0.066
==== e(  38) =    21.18650 eV ==== 
     psi = 0.057*[#  16]+0.010*[#   1]+0.004*[#  17]+0.004*[#  33]+0.003*[#  26]
          +0.003*[#  42]+0.003*[#  32]+0.003*[#  48]
    |psi|^2 = 0.091
==== e(  39) =    22.78973 eV ==== 
     psi = 0.119*[#   3]+0.040*[#   4]+0.013*[#  30]+0.013*[#  46]+0.006*[#  11]
          +0.004*[#  29]+0.004*[#  45]+0.004*[#  22]+0.004*[#  38]+0.002*[#  16]
          +0.002*[#  12]+0.001*[#  23]+0.001*[#  39]+0.001*[#   1]
    |psi|^2 = 0.225
==== e(  40) =    22.89266 eV ==== 
     psi = 0.136*[#   4]+0.045*[#   3]+0.014*[#  29]+0.014*[#  45]+0.007*[#  12]
          +0.005*[#  23]+0.005*[#  39]+0.005*[#  30]+0.005*[#  46]+0.002*[#  11]
          +0.002*[#  22]+0.002*[#  38]+0.001*[#   8]
    |psi|^2 = 0.252
==== e(  41) =    23.63493 eV ==== 
     psi = 0.010*[#  10]+0.007*[#  14]+0.002*[#  13]+0.002*[#   6]+0.002*[#  22]
          +0.002*[#  25]+0.002*[#  38]+0.002*[#  41]+0.002*[#  30]+0.002*[#  46]
          +0.001*[#   2]+0.001*[#  21]+0.001*[#  27]+0.001*[#  37]+0.001*[#  43]
          
    |psi|^2 = 0.047
==== e(  42) =    24.18940 eV ==== 
     psi = 0.012*[#  13]+0.004*[#  14]+0.003*[#   7]+0.003*[#  24]+0.003*[#  40]
          +0.002*[#  29]+0.002*[#  45]+0.002*[#  23]+0.002*[#  39]+0.002*[#  28]
          +0.002*[#  44]
    |psi|^2 = 0.048
==== e(  43) =    24.40040 eV ==== 
     psi = 0.014*[#   3]+0.005*[#   4]+0.002*[#  22]+0.002*[#  38]+0.002*[#  16]
          
    |psi|^2 = 0.035
==== e(  44) =    24.67468 eV ==== 
     psi = 0.008*[#  10]+0.006*[#  14]+0.002*[#  13]
    |psi|^2 = 0.027
==== e(  45) =    24.99262 eV ==== 
     psi = 0.038*[#   4]+0.013*[#   3]+0.003*[#  23]+0.003*[#  39]+0.002*[#  28]
          +0.002*[#  44]+0.001*[#  29]+0.001*[#  45]
    |psi|^2 = 0.069
==== e(  46) =    25.00048 eV ==== 
     psi = 0.018*[#   3]+0.013*[#   2]+0.006*[#   4]+0.002*[#  16]+0.001*[#  30]
          +0.001*[#  46]
    |psi|^2 = 0.051
==== e(  47) =    25.37874 eV ==== 
     psi = 0.021*[#  16]+0.006*[#  21]+0.006*[#  37]+0.004*[#   5]+0.001*[#   1]
          +0.001*[#  11]
    |psi|^2 = 0.044
==== e(  48) =    25.38485 eV ==== 
     psi = 0.018*[#   2]+0.016*[#  10]+0.005*[#  14]+0.002*[#   6]+0.002*[#  13]
          +0.002*[#  30]+0.002*[#  46]+0.001*[#  25]+0.001*[#  41]+0.001*[#  22]
          +0.001*[#  38]
    |psi|^2 = 0.060
==== e(  49) =    25.46009 eV ==== 
     psi = 0.011*[#  13]+0.004*[#  14]+0.003*[#  24]+0.003*[#  40]+0.002*[#   7]
          +0.002*[#  28]+0.002*[#  44]+0.002*[#  23]+0.002*[#  39]+0.001*[#  29]
          +0.001*[#  45]
    |psi|^2 = 0.036
==== e(  50) =    25.60197 eV ==== 
     psi = 0.029*[#   3]+0.010*[#   4]+0.006*[#  16]+0.002*[#   1]+0.001*[#  27]
          +0.001*[#  43]+0.001*[#  22]+0.001*[#  38]+0.001*[#  11]
    |psi|^2 = 0.061
==== e(  51) =    25.86384 eV ==== 
     psi = 0.011*[#   3]+0.005*[#  16]+0.004*[#   4]
    |psi|^2 = 0.027
==== e(  52) =    25.88986 eV ==== 
     psi = 0.029*[#   2]+0.016*[#   4]+0.005*[#   3]+0.002*[#  23]+0.002*[#  39]
          +0.001*[#  28]+0.001*[#  44]
    |psi|^2 = 0.062
==== e(  53) =    26.17762 eV ==== 
     psi = 0.006*[#  10]+0.005*[#  14]+0.002*[#  13]
    |psi|^2 = 0.024
==== e(  54) =    26.33209 eV ==== 
     psi = 0.007*[#  14]+0.002*[#  13]+0.002*[#  25]+0.002*[#  41]+0.002*[#  10]
          +0.001*[#  27]+0.001*[#  43]
    |psi|^2 = 0.024
==== e(  55) =    26.45736 eV ==== 
     psi = 0.013*[#  16]+0.007*[#   3]+0.002*[#   4]+0.001*[#   1]+0.001*[#   2]
          
    |psi|^2 = 0.032
==== e(  56) =    26.55553 eV ==== 
     psi = 0.048*[#   4]+0.016*[#   3]+0.002*[#  29]+0.002*[#  45]
    |psi|^2 = 0.076
==== e(  57) =    26.78198 eV ==== 
     psi = 0.010*[#  13]+0.003*[#  14]+0.001*[#  28]+0.001*[#  44]+0.001*[#  29]
          +0.001*[#  45]
    |psi|^2 = 0.027
==== e(  58) =    26.83574 eV ==== 
     psi = 0.036*[#   3]+0.012*[#   4]+0.002*[#  30]+0.002*[#  46]+0.002*[#  16]
          +0.001*[#  22]+0.001*[#  38]
    |psi|^2 = 0.063
==== e(  59) =    26.99120 eV ==== 
     psi = 0.006*[#  10]+0.003*[#  26]+0.003*[#  42]+0.003*[#  21]+0.003*[#  37]
          +0.002*[#  14]
    |psi|^2 = 0.024
==== e(  60) =    27.20092 eV ==== 
     psi = 0.036*[#   2]+0.003*[#  21]+0.003*[#  37]+0.003*[#  26]+0.003*[#  42]
          +0.002*[#  14]+0.001*[#  10]
    |psi|^2 = 0.053
==== e(  61) =    27.21759 eV ==== 
     psi = 0.018*[#   3]+0.006*[#   4]+0.005*[#  16]+0.001*[#  11]
    |psi|^2 = 0.036
==== e(  62) =    27.47010 eV ==== 
     psi = 0.068*[#   4]+0.023*[#   3]+0.018*[#   2]+0.002*[#  29]+0.002*[#  45]
          +0.002*[#  23]+0.002*[#  39]
    |psi|^2 = 0.126
==== e(  63) =    27.68748 eV ==== 
     psi = 0.026*[#   3]+0.009*[#   4]+0.003*[#  11]+0.002*[#  16]+0.001*[#  27]
          +0.001*[#  43]
    |psi|^2 = 0.047
==== e(  64) =    27.91837 eV ==== 
     psi = 0.023*[#   2]+0.009*[#  13]+0.003*[#  14]+0.002*[#  28]+0.002*[#  44]
          +0.001*[#  24]+0.001*[#  29]+0.001*[#  40]+0.001*[#  45]
    |psi|^2 = 0.049
==== e(  65) =    27.97715 eV ==== 
     psi = 0.007*[#  10]+0.003*[#  14]+0.001*[#   2]+0.001*[#  21]+0.001*[#  37]
          
    |psi|^2 = 0.021
==== e(  66) =    28.40991 eV ==== 
     psi = 0.037*[#   3]+0.012*[#   4]+0.003*[#  11]+0.001*[#  27]+0.001*[#  43]
          +0.001*[#   1]+0.001*[#  12]+0.001*[#  22]+0.001*[#  38]
    |psi|^2 = 0.069
==== e(  67) =    28.67267 eV ==== 
     psi = 0.081*[#   4]+0.027*[#   3]+0.012*[#  12]+0.004*[#  11]+0.003*[#  28]
          +0.003*[#  44]+0.001*[#  27]+0.001*[#  43]
    |psi|^2 = 0.139
==== e(  68) =    28.73582 eV ==== 
     psi = 0.037*[#   2]+0.010*[#  14]+0.003*[#  13]+0.001*[#  27]+0.001*[#  43]
          
    |psi|^2 = 0.061
==== e(  69) =    28.79195 eV ==== 
     psi = 0.052*[#   3]+0.017*[#   4]+0.003*[#  11]+0.002*[#  16]+0.001*[#   1]
          +0.001*[#  12]
    |psi|^2 = 0.086
==== e(  70) =    29.12509 eV ==== 
     psi = 0.052*[#   2]+0.011*[#  10]+0.008*[#  14]+0.003*[#  13]+0.002*[#  22]
          +0.002*[#  30]+0.002*[#  38]+0.002*[#  46]+0.001*[#   6]+0.001*[#  21]
          +0.001*[#  37]
    |psi|^2 = 0.093
==== e(  71) =    29.54505 eV ==== 
     psi = 0.017*[#   3]+0.013*[#  11]+0.006*[#   4]+0.004*[#  12]+0.004*[#  26]
          +0.004*[#  42]
    |psi|^2 = 0.055
==== e(  72) =    29.76551 eV ==== 
     psi = 0.024*[#  13]+0.008*[#  14]+0.004*[#  23]+0.004*[#  39]+0.003*[#  29]
          +0.003*[#  45]+0.003*[#  28]+0.003*[#  44]+0.001*[#   7]+0.001*[#  22]
          +0.001*[#  30]+0.001*[#  38]+0.001*[#  46]
    |psi|^2 = 0.063
==== e(  73) =    30.05264 eV ==== 
     psi = 0.075*[#   4]+0.025*[#   3]+0.012*[#  12]+0.004*[#  11]+0.002*[#  23]
          +0.002*[#  39]+0.001*[#  28]+0.001*[#  44]
    |psi|^2 = 0.127
==== e(  74) =    30.23937 eV ==== 
     psi = 0.025*[#   2]+0.013*[#   3]+0.005*[#  11]+0.004*[#   4]+0.002*[#  12]
          +0.001*[#  26]+0.001*[#  27]+0.001*[#  42]+0.001*[#  43]
    |psi|^2 = 0.062
==== e(  75) =    30.33035 eV ==== 
     psi = 0.017*[#  14]+0.010*[#  10]+0.006*[#  13]+0.003*[#  27]+0.003*[#  43]
          
    |psi|^2 = 0.046
==== e(  76) =    30.97358 eV ==== 
     psi = 0.013*[#   2]+0.012*[#  10]+0.009*[#  14]+0.003*[#  13]+0.002*[#  30]
          +0.002*[#  46]+0.002*[#  22]+0.002*[#  38]
    |psi|^2 = 0.056
==== e(  77) =    31.10131 eV ==== 
     psi = 0.027*[#  13]+0.009*[#  14]+0.004*[#  28]+0.004*[#  44]+0.002*[#  23]
          +0.002*[#  39]+0.001*[#  24]+0.001*[#  29]+0.001*[#  40]+0.001*[#  45]
          +0.001*[#  27]+0.001*[#  43]
    |psi|^2 = 0.061
==== e(  78) =    31.13420 eV ==== 
     psi = 0.050*[#   3]+0.017*[#   4]+0.011*[#  16]+0.005*[#  26]+0.005*[#  42]
          +0.004*[#  11]+0.002*[#   5]+0.002*[#  21]+0.002*[#  37]+0.001*[#  12]
          
    |psi|^2 = 0.104
==== e(  79) =    31.79770 eV ==== 
     psi = 0.036*[#  11]+0.025*[#   3]+0.012*[#  12]+0.008*[#   4]+0.004*[#  16]
          +0.002*[#  27]+0.002*[#  43]+0.002*[#  30]+0.002*[#  46]+0.001*[#   1]
          
    |psi|^2 = 0.102
==== e(  80) =    31.86237 eV ==== 
     psi = 0.053*[#  12]+0.050*[#   2]+0.046*[#   4]+0.018*[#  11]+0.015*[#   3]
          +0.005*[#  28]+0.005*[#  44]+0.004*[#  29]+0.004*[#  45]+0.003*[#  15]
          +0.002*[#  27]+0.002*[#  43]+0.001*[#  30]+0.001*[#  46]
    |psi|^2 = 0.209
==== e(  81) =    32.17912 eV ==== 
     psi = 0.023*[#  14]+0.008*[#  13]+0.004*[#  10]+0.002*[#  27]+0.002*[#  43]
          +0.001*[#  22]+0.001*[#  38]
    |psi|^2 = 0.048
==== e(  82) =    32.31293 eV ==== 
     psi = 0.009*[#  11]+0.006*[#   3]+0.003*[#  12]+0.003*[#  16]+0.003*[#  26]
          +0.003*[#  42]+0.003*[#  27]+0.003*[#  43]+0.002*[#   4]+0.001*[#  30]
          +0.001*[#  46]
    |psi|^2 = 0.040
==== e(  83) =    33.04322 eV ==== 
     psi = 0.025*[#  14]+0.015*[#  10]+0.008*[#  13]+0.005*[#  22]+0.005*[#  38]
          +0.003*[#  30]+0.003*[#  46]+0.002*[#  23]+0.002*[#  39]+0.001*[#  21]
          +0.001*[#  37]+0.001*[#   6]+0.001*[#  29]+0.001*[#  45]
    |psi|^2 = 0.080
==== e(  84) =    33.54551 eV ==== 
     psi = 0.070*[#  13]+0.023*[#  14]+0.011*[#  23]+0.011*[#  39]+0.006*[#   2]
          +0.004*[#  29]+0.004*[#  45]+0.004*[#  22]+0.004*[#  38]+0.003*[#  28]
          +0.003*[#  44]+0.001*[#   7]+0.001*[#  20]+0.001*[#  30]+0.001*[#  36]
          +0.001*[#  46]
    |psi|^2 = 0.153
==== e(  85) =    33.63558 eV ==== 
     psi = 0.024*[#  12]+0.015*[#   4]+0.008*[#  11]+0.005*[#  15]+0.005*[#   3]
          +0.004*[#  28]+0.004*[#  44]+0.001*[#  27]+0.001*[#  43]
    |psi|^2 = 0.071
==== e(  86) =    33.66450 eV ==== 
     psi = 0.026*[#  11]+0.014*[#  16]+0.009*[#  12]+0.005*[#   3]+0.005*[#   2]
          +0.002*[#   4]
    |psi|^2 = 0.068
==== e(  87) =    33.99652 eV ==== 
     psi = 0.008*[#  11]+0.004*[#  27]+0.004*[#  43]+0.003*[#  12]+0.002*[#  26]
          +0.002*[#  42]+0.002*[#   3]+0.001*[#  30]+0.001*[#  46]+0.001*[#  28]
          +0.001*[#  44]
    |psi|^2 = 0.038
==== e(  88) =    34.19194 eV ==== 
     psi = 0.023*[#  14]+0.009*[#  10]+0.008*[#  13]+0.005*[#   2]+0.004*[#  21]
          +0.004*[#  37]+0.002*[#  22]+0.003*[#  26]+0.002*[#  38]+0.003*[#  42]
          
    |psi|^2 = 0.073
==== e(  89) =    34.41412 eV ==== 
     psi = 0.027*[#  14]+0.009*[#  13]+0.007*[#  10]+0.006*[#  26]+0.006*[#  42]
          +0.003*[#  22]+0.003*[#  38]+0.001*[#  27]+0.001*[#  43]
    |psi|^2 = 0.068
==== e(  90) =    35.13479 eV ==== 
     psi = 0.022*[#  10]+0.019*[#  14]+0.006*[#  13]+0.003*[#  30]+0.003*[#  46]
          +0.002*[#  22]+0.002*[#  26]+0.002*[#  38]+0.002*[#  42]+0.001*[#  27]
          +0.001*[#  43]+0.001*[#  25]
    |psi|^2 = 0.077
==== e(  91) =    35.18509 eV ==== 
     psi = 0.046*[#  13]+0.015*[#  14]+0.003*[#  23]+0.003*[#  39]+0.003*[#  29]
          +0.003*[#  45]+0.003*[#  28]+0.003*[#  44]+0.002*[#  24]+0.002*[#  40]
          +0.001*[#  22]+0.001*[#  30]+0.001*[#  38]+0.001*[#  46]
    |psi|^2 = 0.095
==== e(  92) =    35.27810 eV ==== 
     psi = 0.082*[#  12]+0.027*[#  11]+0.016*[#  15]+0.004*[#  29]+0.004*[#  45]
          +0.003*[#  28]+0.003*[#  44]+0.003*[#  24]+0.003*[#  40]+0.001*[#   4]
          +0.001*[#  30]+0.001*[#  46]+0.001*[#  27]+0.001*[#  43]
    |psi|^2 = 0.156
==== e(  93) =    35.31592 eV ==== 
     psi = 0.033*[#  11]+0.015*[#   3]+0.011*[#  12]+0.005*[#  26]+0.005*[#  42]
          +0.005*[#   4]+0.004*[#  16]+0.002*[#  27]+0.002*[#  30]+0.002*[#  43]
          +0.002*[#  46]
    |psi|^2 = 0.091
==== e(  94) =    35.63147 eV ==== 
     psi = 0.045*[#  11]+0.015*[#  12]+0.015*[#   2]+0.008*[#   3]+0.003*[#   4]
          +0.002*[#  25]+0.002*[#  41]+0.002*[#  30]+0.002*[#  46]+0.001*[#  26]
          +0.001*[#  42]+0.001*[#  27]+0.001*[#  43]
    |psi|^2 = 0.107
==== e(  95) =    36.35316 eV ==== 
     psi = 0.034*[#  11]+0.011*[#  12]+0.003*[#  26]+0.003*[#  42]+0.002*[#  27]
          +0.002*[#  43]+0.001*[#  25]+0.001*[#  41]
    |psi|^2 = 0.065
==== e(  96) =    36.41560 eV ==== 
     psi = 0.027*[#  14]+0.021*[#  10]+0.009*[#  13]+0.008*[#   2]+0.003*[#  22]
          +0.003*[#  38]
    |psi|^2 = 0.084
==== e(  97) =    36.92433 eV ==== 
     psi = 0.145*[#  12]+0.066*[#  15]+0.048*[#  11]+0.026*[#   4]+0.009*[#   3]
          +0.007*[#  24]+0.007*[#  40]+0.003*[#  31]+0.003*[#  47]+0.002*[#  25]
          +0.002*[#  41]+0.002*[#  29]+0.002*[#  45]+0.002*[#  23]+0.002*[#  39]
          
    |psi|^2 = 0.334
==== e(  98) =    37.50357 eV ==== 
     psi = 0.050*[#  13]+0.017*[#  14]+0.009*[#   2]+0.008*[#  23]+0.008*[#  39]
          +0.003*[#  22]+0.003*[#  38]+0.001*[#  29]+0.001*[#  45]
    |psi|^2 = 0.108
==== e(  99) =    37.52700 eV ==== 
     psi = 0.113*[#  11]+0.038*[#  12]+0.030*[#   3]+0.010*[#   4]+0.006*[#  25]
          +0.006*[#  41]+0.002*[#  24]+0.002*[#  26]+0.002*[#  40]+0.002*[#  42]
          +0.001*[#  22]+0.001*[#  38]+0.001*[#  30]+0.001*[#  46]
    |psi|^2 = 0.222
==== e( 100) =    37.53533 eV ==== 
     psi = 0.025*[#  14]+0.021*[#  10]+0.008*[#  13]+0.005*[#  22]+0.005*[#  38]
          +0.002*[#  30]+0.002*[#  46]+0.002*[#  23]+0.002*[#  39]+0.001*[#  21]
          +0.001*[#  32]
    |psi|^2 = 0.083

 k =   0.0417533095 -0.0241062818  0.0000000000
==== e(   1) =   -15.54914 eV ==== 
     psi = 0.420*[#   1]+0.271*[#  17]+0.271*[#  33]+0.008*[#  18]+0.008*[#  34]
          +0.007*[#   3]+0.002*[#   4]+0.002*[#  21]+0.002*[#  37]+0.001*[#  16]
          
    |psi|^2 = 0.996
==== e(   2) =   -14.33223 eV ==== 
     psi = 0.278*[#  17]+0.278*[#  33]+0.015*[#  21]+0.015*[#  37]+0.007*[#   2]
          +0.002*[#   6]
    |psi|^2 = 0.598
==== e(   3) =    -6.98844 eV ==== 
     psi = 0.409*[#   2]+0.318*[#   5]+0.030*[#  21]+0.030*[#  37]+0.026*[#  17]
          +0.026*[#  33]+0.022*[#   1]+0.001*[#   9]
    |psi|^2 = 0.865
==== e(   4) =    -3.80267 eV ==== 
     psi = 0.482*[#   9]+0.161*[#   8]+0.111*[#  19]+0.111*[#  35]+0.037*[#  20]
          +0.037*[#  36]+0.017*[#  22]+0.017*[#  38]+0.006*[#  23]+0.006*[#  39]
          +0.003*[#   1]+0.002*[#  17]+0.002*[#  33]+0.001*[#  25]+0.001*[#  41]
          
    |psi|^2 = 0.999
==== e(   5) =    -3.71311 eV ==== 
     psi = 0.488*[#   8]+0.163*[#   9]+0.112*[#  20]+0.112*[#  36]+0.037*[#  19]
          +0.037*[#  35]+0.017*[#  23]+0.017*[#  39]+0.006*[#  22]+0.006*[#  38]
          +0.001*[#  24]+0.001*[#  40]
    |psi|^2 = 0.999
==== e(   6) =    -3.26398 eV ==== 
     psi = 0.090*[#   6]+0.037*[#  18]+0.037*[#  34]+0.030*[#   7]+0.024*[#  19]
          +0.024*[#  35]+0.008*[#  20]+0.008*[#  36]+0.007*[#  10]+0.003*[#  25]
          +0.003*[#  41]+0.002*[#  21]+0.002*[#  37]
    |psi|^2 = 0.278
==== e(   7) =    -2.60252 eV ==== 
     psi = 0.405*[#   7]+0.396*[#  18]+0.396*[#  34]+0.151*[#  20]+0.151*[#  36]
          +0.135*[#   6]+0.050*[#  19]+0.050*[#  35]+0.013*[#  24]+0.013*[#  40]
          +0.006*[#  23]+0.006*[#  39]+0.004*[#  13]+0.004*[#  25]+0.004*[#  41]
          +0.002*[#   2]+0.002*[#  22]+0.002*[#  38]+0.001*[#  14]
    |psi|^2 = 1.794
==== e(   8) =    -2.45601 eV ==== 
     psi = 0.305*[#   6]+0.132*[#  19]+0.132*[#  35]+0.102*[#   7]+0.044*[#  20]
          +0.044*[#  36]+0.024*[#  18]+0.024*[#  34]+0.010*[#  25]+0.010*[#  41]
          +0.006*[#  22]+0.006*[#  38]+0.003*[#  14]+0.003*[#  24]+0.003*[#  40]
          +0.003*[#  21]+0.003*[#  37]+0.002*[#  23]+0.002*[#  39]+0.002*[#  10]
          +0.001*[#  13]
    |psi|^2 = 0.862
==== e(   9) =    -1.25591 eV ==== 
     psi = 0.493*[#   5]+0.191*[#  18]+0.191*[#  34]+0.042*[#  21]+0.042*[#  37]
          +0.007*[#  17]+0.007*[#  33]+0.003*[#   1]+0.002*[#   9]
    |psi|^2 = 0.986
==== e(  10) =     1.94936 eV ==== 
     psi = 0.247*[#   6]+0.199*[#  19]+0.200*[#  35]+0.082*[#   7]+0.066*[#  20]
          +0.067*[#  36]+0.036*[#  25]+0.036*[#  41]+0.012*[#  24]+0.012*[#  40]
          +0.010*[#  14]+0.006*[#  17]+0.006*[#  33]+0.003*[#  13]+0.003*[#  22]
          +0.003*[#  38]
    |psi|^2 = 0.995
==== e(  11) =     2.05250 eV ==== 
     psi = 0.241*[#   7]+0.210*[#  20]+0.210*[#  36]+0.080*[#   6]+0.070*[#  19]
          +0.070*[#  35]+0.035*[#  24]+0.035*[#  40]+0.012*[#  25]+0.012*[#  41]
          +0.010*[#  13]+0.003*[#  14]+0.002*[#  23]+0.002*[#  39]+0.001*[#   2]
          
    |psi|^2 = 1.000
==== e(  12) =     2.20855 eV ==== 
     psi = 0.246*[#  19]+0.246*[#  35]+0.199*[#  18]+0.200*[#  34]+0.192*[#   9]
          +0.082*[#  20]+0.082*[#  36]+0.064*[#   8]+0.012*[#  22]+0.012*[#  38]
          +0.009*[#  25]+0.009*[#  41]+0.004*[#  11]+0.004*[#   1]+0.004*[#   3]
          +0.004*[#  23]+0.004*[#  39]+0.004*[#  17]+0.004*[#  33]+0.003*[#  24]
          +0.003*[#  40]+0.001*[#   4]+0.001*[#  12]+0.001*[#   5]
    |psi|^2 = 1.391
==== e(  13) =     2.27044 eV ==== 
     psi = 0.253*[#  20]+0.253*[#  36]+0.193*[#   8]+0.084*[#  19]+0.084*[#  35]
          +0.064*[#   9]+0.011*[#  23]+0.011*[#  39]+0.009*[#  24]+0.009*[#  40]
          +0.005*[#  12]+0.004*[#   4]+0.004*[#  22]+0.004*[#  38]+0.003*[#  25]
          +0.003*[#  41]+0.001*[#   3]+0.002*[#  11]
    |psi|^2 = 0.999
==== e(  14) =     4.51575 eV ==== 
     psi = 0.096*[#   1]+0.084*[#  18]+0.084*[#  34]+0.042*[#   5]+0.030*[#  17]
          +0.030*[#  33]+0.018*[#  21]+0.018*[#  37]+0.002*[#  19]+0.002*[#  35]
          +0.001*[#   2]+0.001*[#   9]
    |psi|^2 = 0.414
==== e(  15) =     4.71950 eV ==== 
     psi = 0.063*[#  21]+0.063*[#  37]+0.018*[#  17]+0.018*[#  33]+0.003*[#  18]
          +0.003*[#  34]+0.002*[#  10]
    |psi|^2 = 0.171
==== e(  16) =     5.49286 eV ==== 
     psi = 0.272*[#   1]+0.102*[#  17]+0.102*[#  33]+0.038*[#  16]+0.027*[#  21]
          +0.027*[#  37]+0.005*[#   3]+0.003*[#  19]+0.003*[#  35]+0.002*[#  18]
          +0.002*[#  34]+0.002*[#   4]
    |psi|^2 = 0.590
==== e(  17) =     5.83868 eV ==== 
     psi = 0.108*[#  21]+0.108*[#  37]+0.040*[#   5]+0.038*[#   1]+0.037*[#  16]
          +0.019*[#  17]+0.019*[#  33]+0.008*[#   3]+0.003*[#   4]+0.002*[#  18]
          +0.002*[#  34]+0.002*[#   9]
    |psi|^2 = 0.389
==== e(  18) =     6.99403 eV ==== 
     psi = 0.055*[#  21]+0.055*[#  37]+0.010*[#  17]+0.010*[#  33]+0.008*[#   2]
          +0.002*[#  10]
    |psi|^2 = 0.142
==== e(  19) =     8.36661 eV ==== 
     psi = 0.063*[#   2]+0.051*[#  21]+0.051*[#  37]+0.039*[#   5]+0.032*[#   1]
          +0.008*[#  17]+0.008*[#  33]+0.006*[#  16]+0.002*[#  25]+0.002*[#  41]
          
    |psi|^2 = 0.268
==== e(  20) =     8.38519 eV ==== 
     psi = 0.251*[#  37]+0.251*[#  21]+0.133*[#  17]+0.133*[#  33]+0.012*[#  10]
          +0.004*[#  19]+0.004*[#  35]+0.002*[#  25]+0.002*[#  41]+0.001*[#  20]
          +0.001*[#  36]
    |psi|^2 = 0.797
==== e(  21) =     9.78227 eV ==== 
     psi = 0.313*[#  25]+0.313*[#  41]+0.104*[#  24]+0.104*[#  40]+0.018*[#  11]
          +0.016*[#  22]+0.016*[#  38]+0.015*[#   3]+0.006*[#  12]+0.005*[#  23]
          +0.005*[#  39]+0.005*[#  19]+0.005*[#  35]+0.005*[#   4]+0.004*[#   1]
          +0.004*[#   9]+0.002*[#  21]+0.002*[#  37]+0.002*[#  20]+0.002*[#  36]
          +0.001*[#   8]
    |psi|^2 = 0.951
==== e(  22) =     9.96542 eV ==== 
     psi = 0.327*[#  24]+0.327*[#  40]+0.109*[#  25]+0.109*[#  41]+0.024*[#   4]
          +0.019*[#  12]+0.015*[#   2]+0.014*[#  23]+0.014*[#  39]+0.008*[#   3]
          +0.006*[#  11]+0.006*[#  20]+0.006*[#  36]+0.005*[#  18]+0.005*[#  34]
          +0.005*[#   8]+0.005*[#  22]+0.005*[#  38]+0.002*[#  19]+0.002*[#  35]
          +0.002*[#   9]
    |psi|^2 = 1.013
==== e(  23) =    10.49948 eV ==== 
     psi = 0.024*[#  21]+0.024*[#  37]+0.017*[#  17]+0.017*[#  33]+0.004*[#  10]
          +0.002*[#  22]+0.002*[#  38]
    |psi|^2 = 0.094
==== e(  24) =    11.82974 eV ==== 
     psi = 0.097*[#  21]+0.097*[#  37]+0.042*[#   1]+0.036*[#   5]+0.012*[#  17]
          +0.012*[#  33]+0.010*[#   3]+0.008*[#  25]+0.008*[#  41]+0.008*[#   2]
          +0.005*[#  16]+0.003*[#   4]+0.003*[#  24]+0.003*[#  40]+0.002*[#  18]
          +0.002*[#  34]+0.001*[#  32]+0.001*[#  48]
    |psi|^2 = 0.350
==== e(  25) =    11.90502 eV ==== 
     psi = 0.205*[#  25]+0.205*[#  41]+0.110*[#  22]+0.110*[#  38]+0.068*[#  24]
          +0.068*[#  40]+0.037*[#  23]+0.037*[#  39]+0.026*[#   6]+0.020*[#  14]
          +0.009*[#   7]+0.008*[#  19]+0.008*[#  35]+0.007*[#  13]+0.005*[#   2]
          +0.004*[#  10]+0.003*[#  20]+0.003*[#  36]+0.001*[#  17]+0.001*[#  33]
          
    |psi|^2 = 0.939
==== e(  26) =    12.14314 eV ==== 
     psi = 0.212*[#  24]+0.212*[#  40]+0.121*[#  23]+0.121*[#  39]+0.071*[#  25]
          +0.071*[#  41]+0.040*[#  22]+0.040*[#  38]+0.025*[#   7]+0.022*[#  13]
          +0.008*[#   6]+0.008*[#  18]+0.008*[#  34]+0.007*[#  14]+0.007*[#  20]
          +0.007*[#  36]+0.002*[#  19]+0.002*[#  35]
    |psi|^2 = 0.987
==== e(  27) =    12.91393 eV ==== 
     psi = 0.080*[#  21]+0.080*[#  37]+0.018*[#  16]+0.012*[#   3]+0.011*[#  22]
          +0.011*[#  38]+0.006*[#   5]+0.005*[#  25]+0.005*[#  41]+0.004*[#   4]
          +0.004*[#  23]+0.004*[#  39]+0.003*[#   9]+0.003*[#  26]+0.003*[#  42]
          +0.002*[#  24]+0.002*[#  40]+0.001*[#   8]
    |psi|^2 = 0.256
==== e(  28) =    14.97258 eV ==== 
     psi = 0.030*[#  10]+0.025*[#  22]+0.025*[#  38]+0.012*[#  21]+0.012*[#  37]
          +0.008*[#  23]+0.008*[#  39]+0.006*[#  17]+0.006*[#  33]+0.005*[#   6]
          +0.005*[#  25]+0.005*[#  41]+0.004*[#  14]+0.003*[#  32]+0.003*[#  48]
          +0.002*[#  18]+0.002*[#  34]+0.002*[#   7]+0.002*[#  24]+0.002*[#  40]
          +0.001*[#  13]
    |psi|^2 = 0.169
==== e(  29) =    15.53634 eV ==== 
     psi = 0.157*[#  22]+0.157*[#  38]+0.087*[#  25]+0.087*[#  41]+0.053*[#   6]
          +0.052*[#  23]+0.052*[#  39]+0.029*[#  24]+0.029*[#  40]+0.021*[#  14]
          +0.018*[#   7]+0.016*[#   2]+0.011*[#  10]+0.007*[#  21]+0.007*[#  37]
          +0.007*[#  13]+0.005*[#  17]+0.005*[#  33]+0.002*[#  30]+0.002*[#  46]
          
    |psi|^2 = 0.810
==== e(  30) =    15.81102 eV ==== 
     psi = 0.203*[#  23]+0.203*[#  39]+0.098*[#  24]+0.098*[#  40]+0.068*[#  22]
          +0.068*[#  38]+0.063*[#   7]+0.033*[#  25]+0.033*[#  41]+0.030*[#  13]
          +0.021*[#   6]+0.010*[#  14]+0.002*[#  29]+0.002*[#  45]
    |psi|^2 = 0.933
==== e(  31) =    15.99068 eV ==== 
     psi = 0.041*[#  38]+0.041*[#  22]+0.034*[#  16]+0.014*[#   1]+0.014*[#  23]
          +0.014*[#  39]+0.007*[#   9]+0.007*[#  17]+0.007*[#  33]+0.004*[#  26]
[...]
    |psi|^2 = 0.997
==== e(  12) =     2.30808 eV ==== 
     psi = 0.256*[#  20]+0.256*[#  36]+0.190*[#   8]+0.085*[#  19]+0.085*[#  35]
          +0.070*[#  18]+0.070*[#  34]+0.063*[#   9]+0.011*[#  23]+0.011*[#  39]
          +0.008*[#  24]+0.008*[#  40]+0.004*[#  12]+0.004*[#   4]+0.004*[#  22]
          +0.004*[#  38]+0.003*[#  25]+0.003*[#  41]+0.001*[#  11]+0.001*[#   3]
          
    |psi|^2 = 1.139
==== e(  13) =     2.31213 eV ==== 
     psi = 0.256*[#  19]+0.256*[#  35]+0.190*[#   9]+0.085*[#  20]+0.085*[#  36]
          +0.063*[#   8]+0.011*[#  22]+0.011*[#  38]+0.008*[#  25]+0.008*[#  41]
          +0.004*[#  11]+0.004*[#   3]+0.004*[#  23]+0.004*[#  39]+0.003*[#  24]
          +0.003*[#  40]+0.001*[#  12]+0.001*[#   4]
    |psi|^2 = 0.999
==== e(  14) =     4.46344 eV ==== 
     psi = 0.256*[#  18]+0.256*[#  34]+0.103*[#   1]+0.041*[#   5]+0.035*[#  17]
          +0.035*[#  33]+0.016*[#  21]+0.016*[#  37]+0.004*[#   2]
    |psi|^2 = 0.765
==== e(  15) =     4.68293 eV ==== 
     psi = 0.063*[#  21]+0.063*[#  37]+0.018*[#  17]+0.018*[#  33]+0.004*[#  18]
          +0.004*[#  34]+0.002*[#  10]
    |psi|^2 = 0.172
==== e(  16) =     5.38329 eV ==== 
     psi = 0.295*[#   1]+0.111*[#  17]+0.111*[#  33]+0.047*[#  16]+0.043*[#  21]
          +0.043*[#  37]
    |psi|^2 = 0.651
==== e(  17) =     5.77132 eV ==== 
     psi = 0.095*[#  21]+0.095*[#  37]+0.042*[#   5]+0.029*[#  16]+0.020*[#   1]
          +0.010*[#  17]+0.010*[#  33]+0.001*[#  18]+0.001*[#  34]
    |psi|^2 = 0.302
==== e(  18) =     6.95986 eV ==== 
     psi = 0.056*[#  21]+0.056*[#  37]+0.010*[#  17]+0.010*[#  33]+0.003*[#  10]
          
    |psi|^2 = 0.133
==== e(  19) =     8.25247 eV ==== 
     psi = 0.253*[#  21]+0.253*[#  37]+0.140*[#  17]+0.140*[#  33]+0.063*[#   2]
          +0.011*[#  10]
    |psi|^2 = 0.860
==== e(  20) =     8.33436 eV ==== 
     psi = 0.050*[#  21]+0.050*[#  37]+0.039*[#   5]+0.030*[#   1]+0.008*[#  17]
          +0.008*[#  33]+0.007*[#  16]
    |psi|^2 = 0.192
==== e(  21) =     9.87096 eV ==== 
     psi = 0.329*[#  24]+0.329*[#  40]+0.110*[#  25]+0.110*[#  41]+0.024*[#   4]
          +0.019*[#  12]+0.013*[#  23]+0.013*[#  39]+0.008*[#   3]+0.006*[#  11]
          +0.005*[#   8]+0.004*[#  20]+0.004*[#  22]+0.004*[#  36]+0.004*[#  38]
          +0.002*[#   9]+0.001*[#  19]+0.001*[#  35]
    |psi|^2 = 0.988
==== e(  22) =     9.87661 eV ==== 
     psi = 0.329*[#  25]+0.329*[#  41]+0.110*[#  24]+0.110*[#  40]+0.024*[#   3]
          +0.019*[#  11]+0.013*[#  22]+0.013*[#  38]+0.008*[#   2]+0.008*[#   4]
          +0.006*[#  12]+0.005*[#   9]+0.004*[#  19]+0.004*[#  23]+0.004*[#  35]
          +0.004*[#  39]+0.002*[#   8]+0.001*[#  18]+0.001*[#  20]+0.001*[#  34]
          +0.001*[#  36]
    |psi|^2 = 0.999
==== e(  23) =    10.47291 eV ==== 
     psi = 0.024*[#  21]+0.024*[#  37]+0.018*[#  17]+0.018*[#  33]+0.004*[#  10]
          
    |psi|^2 = 0.089
==== e(  24) =    11.75145 eV ==== 
     psi = 0.098*[#  21]+0.098*[#  37]+0.052*[#   1]+0.034*[#   5]+0.024*[#   2]
          +0.012*[#  17]+0.012*[#  33]+0.005*[#  16]+0.004*[#  18]+0.004*[#  34]
          +0.001*[#  32]+0.001*[#  48]
    |psi|^2 = 0.347
==== e(  25) =    12.14874 eV ==== 
     psi = 0.214*[#  24]+0.214*[#  40]+0.118*[#  23]+0.118*[#  39]+0.071*[#  25]
          +0.071*[#  41]+0.039*[#  22]+0.039*[#  38]+0.027*[#   7]+0.022*[#  13]
          +0.009*[#   6]+0.008*[#  20]+0.008*[#  36]+0.007*[#  14]+0.003*[#  19]
          +0.003*[#  35]
    |psi|^2 = 0.972
==== e(  26) =    12.15621 eV ==== 
     psi = 0.214*[#  25]+0.214*[#  41]+0.119*[#  22]+0.119*[#  38]+0.071*[#  24]
          +0.071*[#  40]+0.040*[#  23]+0.040*[#  39]+0.027*[#   6]+0.022*[#  14]
          +0.009*[#   7]+0.008*[#  19]+0.008*[#  35]+0.007*[#  13]+0.003*[#  18]
          +0.003*[#  20]+0.003*[#  34]+0.003*[#  36]
    |psi|^2 = 0.977
==== e(  27) =    12.92093 eV ==== 
     psi = 0.083*[#  21]+0.083*[#  37]+0.020*[#  16]+0.005*[#   5]+0.003*[#  26]
          +0.003*[#  42]+0.002*[#   1]
    |psi|^2 = 0.200
==== e(  28) =    14.95428 eV ==== 
     psi = 0.047*[#  10]+0.016*[#  21]+0.016*[#  37]+0.010*[#  17]+0.010*[#  33]
          +0.008*[#  18]+0.008*[#  34]+0.005*[#  32]+0.005*[#  48]
    |psi|^2 = 0.123
==== e(  29) =    15.69064 eV ==== 
     psi = 0.056*[#  10]+0.014*[#  32]+0.014*[#  48]+0.002*[#  18]+0.002*[#  34]
          +0.002*[#  26]+0.002*[#  42]+0.001*[#  21]+0.001*[#  37]
    |psi|^2 = 0.097
==== e(  30) =    15.73478 eV ==== 
     psi = 0.205*[#  23]+0.205*[#  39]+0.096*[#  24]+0.096*[#  40]+0.068*[#  22]
          +0.068*[#  38]+0.063*[#   7]+0.032*[#  25]+0.032*[#  41]+0.031*[#  13]
          +0.021*[#   6]+0.010*[#  14]+0.002*[#  29]+0.002*[#  45]
    |psi|^2 = 0.932
==== e(  31) =    15.73733 eV ==== 
     psi = 0.204*[#  22]+0.204*[#  38]+0.096*[#  25]+0.096*[#  41]+0.068*[#  23]
          +0.068*[#  39]+0.062*[#   6]+0.032*[#  24]+0.032*[#  40]+0.031*[#  14]
          +0.021*[#   7]+0.010*[#  13]+0.002*[#  30]+0.002*[#  46]
    |psi|^2 = 0.930
==== e(  32) =    15.96410 eV ==== 
     psi = 0.048*[#  16]+0.016*[#   1]+0.007*[#  17]+0.007*[#  33]+0.006*[#  26]
          +0.006*[#  42]+0.003*[#  32]+0.003*[#  48]+0.003*[#  21]+0.003*[#  37]
          
    |psi|^2 = 0.102
==== e(  33) =    16.38722 eV ==== 
     psi = 0.315*[#  23]+0.315*[#  39]+0.105*[#  22]+0.105*[#  38]+0.059*[#   8]
          +0.020*[#   9]+0.012*[#  24]+0.012*[#  40]+0.005*[#   4]+0.004*[#  25]
          +0.004*[#  41]+0.002*[#  12]+0.002*[#   3]
    |psi|^2 = 0.960
==== e(  34) =    16.39111 eV ==== 
     psi = 0.315*[#  22]+0.315*[#  38]+0.105*[#  23]+0.105*[#  39]+0.059*[#   9]
          +0.020*[#   8]+0.012*[#  25]+0.012*[#  41]+0.005*[#   3]+0.004*[#  24]
          +0.004*[#  40]+0.002*[#  11]+0.002*[#   2]+0.002*[#   4]
    |psi|^2 = 0.962
==== e(  35) =    18.99646 eV ==== 
     psi = 0.016*[#  21]+0.016*[#  37]+0.014*[#  32]+0.014*[#  48]+0.009*[#   5]
          +0.001*[#  16]
    |psi|^2 = 0.072
==== e(  36) =    19.23642 eV ==== 
     psi = 0.023*[#  21]+0.023*[#  37]+0.015*[#  17]+0.015*[#  33]+0.009*[#  26]
          +0.009*[#  42]+0.006*[#  32]+0.006*[#  48]+0.005*[#   2]
    |psi|^2 = 0.112
==== e(  37) =    20.69675 eV ==== 
     psi = 0.020*[#   2]+0.014*[#  21]+0.014*[#  37]+0.007*[#  10]+0.004*[#  17]
          +0.004*[#  33]+0.002*[#  26]+0.002*[#  42]
    |psi|^2 = 0.066
==== e(  38) =    21.20092 eV ==== 
     psi = 0.060*[#  16]+0.010*[#   1]+0.004*[#  17]+0.004*[#  33]+0.003*[#  26]
          +0.003*[#  32]+0.003*[#  42]+0.003*[#  48]
    |psi|^2 = 0.090
==== e(  39) =    22.85766 eV ==== 
     psi = 0.142*[#   4]+0.047*[#   3]+0.015*[#  29]+0.015*[#  45]+0.007*[#  12]
          +0.005*[#  30]+0.005*[#  46]+0.004*[#  23]+0.004*[#  39]+0.002*[#  11]
          +0.001*[#  22]+0.001*[#  38]
    |psi|^2 = 0.259
==== e(  40) =    22.86428 eV ==== 
     psi = 0.142*[#   3]+0.047*[#   4]+0.015*[#  30]+0.015*[#  46]+0.007*[#  11]
          +0.005*[#  29]+0.005*[#  45]+0.004*[#  22]+0.004*[#  38]+0.002*[#  12]
          +0.001*[#  23]+0.001*[#  39]
    |psi|^2 = 0.257
==== e(  41) =    24.42299 eV ==== 
     psi = 0.011*[#  13]+0.004*[#   7]+0.004*[#  14]+0.003*[#  29]+0.003*[#  45]
          +0.003*[#  24]+0.003*[#  40]+0.003*[#  23]+0.003*[#  39]+0.002*[#  28]
          +0.002*[#  44]+0.001*[#   6]+0.001*[#  30]+0.001*[#  46]
    |psi|^2 = 0.050
==== e(  42) =    24.43083 eV ==== 
     psi = 0.011*[#  14]+0.004*[#   6]+0.004*[#  13]+0.003*[#  30]+0.003*[#  46]
          +0.003*[#  25]+0.003*[#  41]+0.003*[#  22]+0.003*[#  38]+0.002*[#  27]
          +0.002*[#  43]+0.001*[#   7]+0.001*[#  24]+0.001*[#  29]+0.001*[#  45]
          
    |psi|^2 = 0.050
==== e(  43) =    24.62374 eV ==== 
     psi = 0.035*[#  10]+0.003*[#  21]+0.003*[#  37]
    |psi|^2 = 0.045
==== e(  44) =    25.08826 eV ==== 
     psi = 0.018*[#  16]+0.003*[#  21]+0.003*[#  37]+0.001*[#   5]
    |psi|^2 = 0.030
==== e(  45) =    25.16984 eV ==== 
     psi = 0.004*[#  21]+0.004*[#  37]+0.003*[#   5]+0.002*[#  32]+0.002*[#  48]
          +0.002*[#  16]
    |psi|^2 = 0.019
==== e(  46) =    25.22126 eV ==== 
     psi = 0.013*[#  13]+0.004*[#  14]+0.002*[#  24]+0.002*[#  40]+0.002*[#  44]
          +0.002*[#  28]+0.001*[#   7]+0.001*[#  39]
    |psi|^2 = 0.033
==== e(  47) =    25.22286 eV ==== 
     psi = 0.021*[#   4]+0.007*[#   3]+0.004*[#  23]+0.004*[#  39]+0.002*[#  28]
          +0.002*[#  44]+0.001*[#  22]+0.001*[#  38]+0.001*[#   8]
    |psi|^2 = 0.048
==== e(  48) =    25.22772 eV ==== 
     psi = 0.013*[#  14]+0.004*[#  13]+0.002*[#  25]+0.002*[#  41]+0.002*[#  43]
          +0.002*[#  27]+0.001*[#   6]
    |psi|^2 = 0.033
==== e(  49) =    25.22996 eV ==== 
     psi = 0.021*[#   3]+0.007*[#   4]+0.004*[#  22]+0.004*[#  38]+0.002*[#  27]
          +0.002*[#  43]+0.001*[#  23]+0.001*[#  39]+0.001*[#   9]
    |psi|^2 = 0.047
==== e(  50) =    25.76930 eV ==== 
     psi = 0.021*[#   2]+0.001*[#  10]
    |psi|^2 = 0.026
==== e(  51) =    25.94113 eV ==== 
     psi = 0.032*[#   4]+0.011*[#   3]+0.002*[#   2]+0.002*[#  29]+0.002*[#  45]
          
    |psi|^2 = 0.053
==== e(  52) =    25.94720 eV ==== 
     psi = 0.029*[#   3]+0.010*[#   4]+0.002*[#  16]+0.002*[#  30]+0.002*[#  46]
          
    |psi|^2 = 0.049
==== e(  53) =    25.95923 eV ==== 
     psi = 0.019*[#  16]+0.003*[#   3]+0.002*[#  21]+0.002*[#  37]+0.001*[#   1]
          +0.001*[#   5]
    |psi|^2 = 0.031
==== e(  54) =    26.43078 eV ==== 
     psi = 0.003*[#   2]+0.002*[#  16]
    |psi|^2 = 0.007
==== e(  55) =    26.47770 eV ==== 
     psi = 0.016*[#   4]+0.005*[#   3]+0.001*[#  28]+0.001*[#  44]+0.001*[#  23]
          +0.001*[#  39]
    |psi|^2 = 0.030
==== e(  56) =    26.48510 eV ==== 
     psi = 0.016*[#   3]+0.005*[#   4]+0.001*[#  27]+0.001*[#  43]+0.001*[#  22]
          +0.001*[#  38]
    |psi|^2 = 0.030
==== e(  57) =    26.92779 eV ==== 
     psi = 0.013*[#  16]+0.002*[#  32]+0.002*[#  48]
    |psi|^2 = 0.020
==== e(  58) =    26.96326 eV ==== 
     psi = 0.016*[#  10]+0.005*[#  26]+0.005*[#  42]+0.001*[#  21]+0.001*[#  37]
          
    |psi|^2 = 0.028
==== e(  59) =    27.07937 eV ==== 
     psi = 0.006*[#  13]+0.002*[#  14]+0.002*[#  29]+0.002*[#  45]+0.002*[#  23]
          +0.002*[#  39]+0.001*[#   7]+0.001*[#   2]
    |psi|^2 = 0.027
==== e(  60) =    27.08691 eV ==== 
     psi = 0.006*[#  14]+0.002*[#  13]+0.002*[#  30]+0.002*[#  46]+0.002*[#  22]
          +0.002*[#  38]+0.001*[#   6]
    |psi|^2 = 0.026
==== e(  61) =    27.19917 eV ==== 
     psi = 0.007*[#   2]+0.006*[#  21]+0.006*[#  37]+0.004*[#  10]+0.001*[#  26]
          +0.001*[#  42]
    |psi|^2 = 0.029
==== e(  62) =    27.22735 eV ==== 
     psi = 0.096*[#   4]+0.032*[#   3]+0.004*[#  29]+0.004*[#  45]+0.002*[#  23]
          +0.002*[#  39]+0.001*[#  30]+0.001*[#  46]+0.001*[#  24]+0.001*[#  40]
          
    |psi|^2 = 0.148
==== e(  63) =    27.23431 eV ==== 
     psi = 0.096*[#   3]+0.032*[#   4]+0.004*[#  30]+0.004*[#  46]+0.002*[#  22]
          +0.002*[#  38]+0.001*[#  29]+0.001*[#  45]+0.001*[#  25]+0.001*[#  41]
          
    |psi|^2 = 0.148
==== e(  64) =    27.57931 eV ==== 
     psi = 0.032*[#   2]+0.012*[#  13]+0.004*[#  14]+0.002*[#  28]+0.002*[#  44]
          +0.001*[#  24]+0.001*[#  40]
    |psi|^2 = 0.058
==== e(  65) =    27.58600 eV ==== 
     psi = 0.012*[#  14]+0.004*[#  13]+0.002*[#  27]+0.002*[#  43]+0.001*[#  25]
          +0.001*[#  41]
    |psi|^2 = 0.026
==== e(  66) =    28.14092 eV ==== 
     psi = 0.002*[#  10]
    |psi|^2 = 0.004
==== e(  67) =    28.80759 eV ==== 
     psi = 0.004*[#  16]
    |psi|^2 = 0.008
==== e(  68) =    28.93227 eV ==== 
     psi = 0.071*[#   4]+0.023*[#   3]+0.013*[#  12]+0.004*[#  28]+0.004*[#  44]
          +0.004*[#  11]+0.001*[#  27]+0.001*[#  43]
    |psi|^2 = 0.126
==== e(  69) =    28.93986 eV ==== 
     psi = 0.070*[#   3]+0.023*[#   4]+0.013*[#  11]+0.004*[#  27]+0.004*[#  43]
          +0.004*[#  12]+0.001*[#  28]+0.001*[#  44]
    |psi|^2 = 0.126
==== e(  70) =    29.43534 eV ==== 
     psi = 0.070*[#   2]+0.005*[#  26]+0.005*[#  42]+0.001*[#  32]+0.001*[#  48]
          
    |psi|^2 = 0.084
==== e(  71) =    29.77843 eV ==== 
     psi = 0.080*[#   4]+0.026*[#   3]+0.008*[#  12]+0.003*[#  11]+0.002*[#  23]
          +0.002*[#  39]+0.001*[#  29]+0.001*[#  45]
    |psi|^2 = 0.128
==== e(  72) =    29.78488 eV ==== 
     psi = 0.080*[#   3]+0.027*[#   4]+0.008*[#  11]+0.003*[#  12]+0.002*[#  22]
          +0.002*[#  38]+0.001*[#  30]+0.001*[#  46]
    |psi|^2 = 0.128
==== e(  73) =    29.94147 eV ==== 
     psi = 0.028*[#  10]+0.003*[#   2]+0.003*[#  21]+0.003*[#  37]
    |psi|^2 = 0.038
==== e(  74) =    29.96423 eV ==== 
     psi = 0.020*[#  13]+0.007*[#  14]+0.005*[#  23]+0.005*[#  39]+0.005*[#  29]
          +0.005*[#  45]+0.002*[#   7]+0.002*[#  28]+0.002*[#  44]+0.002*[#  22]
          +0.002*[#  30]+0.002*[#  38]+0.002*[#  46]
    |psi|^2 = 0.063
==== e(  75) =    29.97240 eV ==== 
     psi = 0.020*[#  14]+0.007*[#  13]+0.005*[#  22]+0.005*[#  38]+0.005*[#  30]
          +0.005*[#  46]+0.002*[#   6]+0.002*[#  27]+0.002*[#  43]+0.002*[#  23]
          +0.002*[#  29]+0.002*[#  39]+0.002*[#  45]
    |psi|^2 = 0.063
==== e(  76) =    30.86980 eV ==== 
     psi = 0.030*[#  13]+0.010*[#  14]+0.004*[#  28]+0.004*[#  44]+0.002*[#  24]
          +0.002*[#  40]+0.001*[#  27]+0.001*[#  43]
    |psi|^2 = 0.060
==== e(  77) =    30.87592 eV ==== 
     psi = 0.030*[#  14]+0.010*[#  13]+0.004*[#  27]+0.004*[#  43]+0.002*[#  25]
          +0.002*[#  41]+0.001*[#  28]+0.001*[#  44]
    |psi|^2 = 0.060
==== e(  78) =    30.99768 eV ==== 
     psi = 0.012*[#  16]+0.006*[#  26]+0.006*[#  42]+0.003*[#   5]+0.002*[#  21]
          +0.002*[#  37]+0.001*[#   1]
    |psi|^2 = 0.033
==== e(  79) =    31.78236 eV ==== 
     psi = 0.009*[#  10]+0.001*[#  32]+0.001*[#  48]
    |psi|^2 = 0.013
==== e(  80) =    32.08841 eV ==== 
     psi = 0.062*[#  12]+0.055*[#   4]+0.021*[#  11]+0.018*[#   3]+0.005*[#  28]
          +0.005*[#  44]+0.004*[#  29]+0.004*[#  45]+0.002*[#  27]+0.002*[#  43]
          +0.001*[#  30]+0.001*[#  46]
    |psi|^2 = 0.183
==== e(  81) =    32.09578 eV ==== 
     psi = 0.062*[#  11]+0.055*[#   3]+0.021*[#  12]+0.018*[#   4]+0.005*[#  27]
          +0.005*[#  43]+0.004*[#  30]+0.004*[#  46]+0.002*[#  28]+0.002*[#  44]
          +0.001*[#  29]+0.001*[#  45]
    |psi|^2 = 0.183
==== e(  82) =    32.39064 eV ==== 
     psi = 0.055*[#   2]+0.009*[#  16]+0.005*[#  26]+0.005*[#  42]
    |psi|^2 = 0.074
==== e(  83) =    33.44315 eV ==== 
     psi = 0.013*[#  12]+0.010*[#   4]+0.004*[#  11]+0.004*[#  28]+0.004*[#  44]
          +0.003*[#   3]+0.001*[#  27]+0.001*[#  43]
    |psi|^2 = 0.043
==== e(  84) =    33.44792 eV ==== 
     psi = 0.013*[#  11]+0.010*[#   3]+0.004*[#  12]+0.004*[#  27]+0.004*[#  43]
          +0.003*[#   4]+0.001*[#  28]+0.001*[#  44]
    |psi|^2 = 0.043
==== e(  85) =    33.67438 eV ==== 
     psi = 0.071*[#  13]+0.024*[#  14]+0.012*[#  23]+0.012*[#  39]+0.004*[#  29]
          +0.004*[#  45]+0.004*[#  22]+0.004*[#  38]+0.002*[#  28]+0.002*[#  44]
          +0.001*[#   7]+0.001*[#  20]+0.001*[#  30]+0.001*[#  36]+0.001*[#  46]
          
    |psi|^2 = 0.151
==== e(  86) =    33.68302 eV ==== 
     psi = 0.071*[#  14]+0.024*[#  13]+0.012*[#  22]+0.012*[#  38]+0.004*[#  30]
          +0.004*[#  46]+0.004*[#  23]+0.004*[#  39]+0.002*[#  27]+0.002*[#  43]
          +0.001*[#   6]+0.001*[#  19]+0.001*[#  29]+0.001*[#  35]+0.001*[#  45]
          
    |psi|^2 = 0.152
==== e(  87) =    33.82940 eV ==== 
     psi = 0.032*[#  10]+0.004*[#  21]+0.004*[#  37]
    |psi|^2 = 0.043
==== e(  88) =    33.90773 eV ==== 
     psi = 0.014*[#  16]+0.003*[#  26]+0.003*[#  42]+0.002*[#  32]+0.002*[#  48]
          +0.001*[#  18]+0.001*[#  21]+0.001*[#  34]+0.001*[#  37]
    |psi|^2 = 0.030
==== e(  89) =    34.38852 eV ==== 
     psi = 0.010*[#  26]+0.010*[#  42]+0.006*[#  10]+0.001*[#  21]+0.001*[#  37]
          
    |psi|^2 = 0.029
==== e(  90) =    35.05009 eV ==== 
     psi = 0.043*[#  13]+0.014*[#  14]+0.003*[#  28]+0.003*[#  29]+0.003*[#  44]
          +0.003*[#  45]+0.003*[#  24]+0.003*[#  40]+0.002*[#  23]+0.002*[#  39]
          +0.001*[#  27]+0.001*[#  30]+0.001*[#  43]+0.001*[#  46]
    |psi|^2 = 0.087
==== e(  91) =    35.05442 eV ==== 
     psi = 0.043*[#  14]+0.014*[#  13]+0.003*[#  27]+0.003*[#  30]+0.003*[#  43]
          +0.003*[#  46]+0.003*[#  25]+0.003*[#  41]+0.002*[#  22]+0.002*[#  38]
          +0.001*[#  28]+0.001*[#  29]+0.001*[#  44]+0.001*[#  45]
    |psi|^2 = 0.087
==== e(  92) =    35.34731 eV ==== 
     psi = 0.005*[#  26]+0.005*[#  42]+0.002*[#  16]
    |psi|^2 = 0.017
==== e(  93) =    35.51341 eV ==== 
     psi = 0.099*[#  12]+0.033*[#  11]+0.005*[#  29]+0.005*[#  45]+0.004*[#  28]
          +0.004*[#  44]+0.003*[#  24]+0.003*[#  40]+0.002*[#  30]+0.002*[#  46]
          +0.001*[#  27]+0.001*[#  43]
    |psi|^2 = 0.166
==== e(  94) =    35.51916 eV ==== 
     psi = 0.099*[#  11]+0.033*[#  12]+0.005*[#  30]+0.005*[#  46]+0.004*[#  27]
          +0.004*[#  43]+0.003*[#  25]+0.003*[#  41]+0.002*[#  29]+0.002*[#  45]
          +0.001*[#  28]+0.001*[#  44]
    |psi|^2 = 0.166
==== e(  95) =    36.36780 eV ==== 
     psi = 0.044*[#  10]+0.002*[#  26]+0.002*[#  42]+0.002*[#  21]+0.002*[#  37]
          +0.002*[#  32]+0.002*[#  48]
    |psi|^2 = 0.057
==== e(  96) =    36.68127 eV ==== 
     psi = 0.006*[#  26]+0.006*[#  42]
    |psi|^2 = 0.016
==== e(  97) =    36.94715 eV ==== 
     psi = 0.128*[#  12]+0.043*[#  11]+0.022*[#   4]+0.007*[#   3]+0.006*[#  24]
          +0.006*[#  40]+0.002*[#  25]+0.002*[#  41]+0.002*[#  28]+0.002*[#  29]
          +0.002*[#  44]+0.002*[#  45]+0.001*[#  23]+0.001*[#  39]
    |psi|^2 = 0.230
==== e(  98) =    36.94740 eV ==== 
     psi = 0.129*[#  11]+0.043*[#  12]+0.022*[#   3]+0.007*[#   2]+0.007*[#   4]
          +0.006*[#  25]+0.006*[#  41]+0.002*[#  24]+0.002*[#  40]+0.001*[#  27]
          +0.002*[#  30]+0.002*[#  46]+0.001*[#  22]+0.001*[#  38]+0.001*[#  43]
          
    |psi|^2 = 0.239
==== e(  99) =    37.58552 eV ==== 
     psi = 0.053*[#  13]+0.018*[#  14]+0.009*[#  23]+0.009*[#  39]+0.003*[#  22]
          +0.003*[#  38]
    |psi|^2 = 0.103
==== e( 100) =    37.59182 eV ==== 
     psi = 0.053*[#  14]+0.022*[#   2]+0.018*[#  13]+0.009*[#  22]+0.009*[#  38]
          +0.003*[#  23]+0.003*[#  39]
    |psi|^2 = 0.126

Lowdin Charges: 

     Atom #   1: total charge =   6.6548, s =  0.3879, 
     Atom #   1: total charge =   6.6548, p =  1.1198, pz=  0.5855, px=  0.2953, py=  0.2390, 
     Atom #   1: total charge =   6.6548, d =  5.1007, dz2=  1.0820, dxz=  0.9470, dyz=  0.9734, dx2-y2=  1.0021, dxy=  1.0962, 
     Atom #   1: total charge =   6.6548, f =  0.0465, fz3=  0.0069, fxz2=  0.0064, fyz2=  0.0069, fzx2-zy2=  0.0084, fxyz=  0.0098, fx3-3xy2=  0.0043, f3yx2-y3=  0.0038, 
     Atom #   2: total charge =   5.1508, s =  1.4444, 
     Atom #   2: total charge =   5.1508, p =  3.3064, pz=  0.9896, px=  1.1719, py=  1.1449, 
     Atom #   2: total charge =   5.1508, d =  0.3969, dz2=  0.1063, dxz=  0.0577, dyz=  0.0555, dx2-y2=  0.0838, dxy=  0.0937, 
     Atom #   2: total charge =   5.1508, f =  0.0031, fz3=  0.0004, fxz2=  0.0006, fyz2=  0.0005, fzx2-zy2=  0.0005, fxyz=  0.0006, fx3-3xy2=  0.0002, f3yx2-y3=  0.0004, 
     Atom #   3: total charge =   5.1507, s =  1.4444, 
     Atom #   3: total charge =   5.1507, p =  3.3063, pz=  0.9895, px=  1.1719, py=  1.1449, 
     Atom #   3: total charge =   5.1507, d =  0.3969, dz2=  0.1063, dxz=  0.0577, dyz=  0.0555, dx2-y2=  0.0838, dxy=  0.0937, 
     Atom #   3: total charge =   5.1507, f =  0.0031, fz3=  0.0004, fxz2=  0.0006, fyz2=  0.0005, fzx2-zy2=  0.0005, fxyz=  0.0006, fx3-3xy2=  0.0002, f3yx2-y3=  0.0004, 
     Spilling Parameter:   0.0580

     PROJWFC      :     25.95s CPU     31.73s WALL


   This run was terminated on:   2:39:23   8Jun2022            

=------------------------------------------------------------------------------=
   JOB DONE.
=------------------------------------------------------------------------------=
