
     Program PWSCF v.6.5Max starts on 24May2022 at 19:32:50 

     This program is part of the open-source Quantum ESPRESSO suite
     for quantum simulation of materials; please cite
         "P. Giannozzi et al., J. Phys.:Condens. Matter 21 395502 (2009);
         "P. Giannozzi et al., J. Phys.:Condens. Matter 29 465901 (2017);
          URL http://www.quantum-espresso.org", 
     in publications or presentations arising from this work. More details at
     http://www.quantum-espresso.org/quote

     Parallel version (MPI), running on    16 processors

     MPI processes distributed on     1 nodes
     R & G space division:  proc/nbgrp/npool/nimage =      16
     Waiting for input...
     Reading input from standard input

     Current dimensions of program PWSCF are:
     Max number of different atomic species (ntypx) = 10
     Max number of k-points (npk) =  40000
     Max angular momentum in pseudopotentials (lmaxx) =  3

     Atomic positions and unit cell read from directory:
     ./out/1x1_MoS2.save/                                                                                                                                                                                                                                            

               file Mo.pw-mt_fhi.UPF: wavefunction(s)  4f renormalized
               file S.pw-mt_fhi.UPF: wavefunction(s)  4f renormalized

     -------------------------------------------------
     Parameters for Dispersion (Grimme-D2) Correction:
     -------------------------------------------------
       atom      VdW radius       C_6     

        Mo         3.097        855.833
        S          3.180        193.230

     Subspace diagonalization in iterative solution of the eigenvalue problem:
     a serial algorithm will be used

     Message from routine setup:
     no reason to have ecutrho>4*ecutwfc

     Parallelization info
     --------------------
     sticks:   dense  smooth     PW     G-vecs:    dense   smooth      PW
     Min          88      34     10                15714     3948     638
     Max          89      35     11                15731     3981     663
     Sum        1417     559    163               251567    63583   10347



     bravais-lattice index     =            0
     lattice parameter (alat)  =       5.8578  a.u.
     unit-cell volume          =    1012.8512 (a.u.)^3
     number of atoms/cell      =            3
     number of atomic types    =            2
     number of electrons       =        18.00
     number of Kohn-Sham states=          100
     kinetic-energy cutoff     =      60.0000  Ry
     charge density cutoff     =     600.0000  Ry
     Exchange-correlation= SLA-PW
                           (   1   4   0   0   0   0   0)

     celldm(1)=   5.857840  celldm(2)=   0.000000  celldm(3)=   0.000000
     celldm(4)=   0.000000  celldm(5)=   0.000000  celldm(6)=   0.000000

     crystal axes: (cart. coord. in units of alat)
               a(1) = (   0.998010   0.000148   0.000000 )  
               a(2) = (  -0.498877   0.864376   0.000000 )  
               a(3) = (   0.000000   0.000000   5.840610 )  

     reciprocal axes: (cart. coord. in units 2 pi/alat)
               b(1) = (  1.001908  0.578254 -0.000000 )  
               b(2) = ( -0.000171  1.156805  0.000000 )  
               b(3) = (  0.000000 -0.000000  0.171215 )  


     PseudoPot. # 1 for Mo read from file:
     ./Mo.pw-mt_fhi.UPF
     MD5 check sum: 39557091c5c29ab518dcc42d2770f0a9
     Pseudo is Norm-conserving, Zval =  6.0
     Generated using FHI98PP, converted with fhi2upf.x v.5.0.1
     Using radial grid of  541 points,  3 beta functions with: 
                l(1) =   0
                l(2) =   2
                l(3) =   3

     PseudoPot. # 2 for S  read from file:
     ./S.pw-mt_fhi.UPF
     MD5 check sum: 498597b413bac406373b42162ed9f1a5
     Pseudo is Norm-conserving, Zval =  6.0
     Generated using FHI98PP, converted with fhi2upf.x v.5.0.1
     Using radial grid of  501 points,  3 beta functions with: 
                l(1) =   0
                l(2) =   1
                l(3) =   3

     atomic species   valence    mass     pseudopotential
        Mo             6.00    95.95000     Mo( 1.00)
        S              6.00    32.06500     S ( 1.00)

     No symmetry found


                                    s                        frac. trans.

      isym =  1     identity                                     

 cryst.   s( 1) = (     1          0          0      )
                  (     0          1          0      )
                  (     0          0          1      )

 cart.    s( 1) = (  1.0000000  0.0000000  0.0000000 )
                  ( -0.0000000  1.0000000  0.0000000 )
                  (  0.0000000  0.0000000  1.0000000 )


   Cartesian axes

     site n.     atom                  positions (alat units)
         1           Mo  tau(   1) = (   0.4955669   0.2786269   3.5999512  )
         2           S   tau(   2) = (  -0.0034576   0.5667389   4.0985121  )
         3           S   tau(   3) = (  -0.0034576   0.5667389   3.1013879  )

   Crystallographic axes

     site n.     atom                  positions (cryst. coord.)
         1           Mo  tau(   1) = (  0.6576295  0.3222320  0.6163656  )
         2           S   tau(   2) = (  0.3242548  0.6556068  0.7017267  )
         3           S   tau(   3) = (  0.3242547  0.6556068  0.5310041  )

     number of k points=   100
                       cart. coord. in units 2pi/alat
        k(    1) = (   0.0000000   0.0000000   0.0000000), wk =   0.0200000
        k(    2) = (   0.0139178  -0.0080354   0.0000000), wk =   0.0200000
        k(    3) = (   0.0278355  -0.0160709   0.0000000), wk =   0.0200000
        k(    4) = (   0.0417533  -0.0241063   0.0000000), wk =   0.0200000
        k(    5) = (   0.0556711  -0.0321417   0.0000000), wk =   0.0200000
        k(    6) = (   0.0695888  -0.0401771   0.0000000), wk =   0.0200000
        k(    7) = (   0.0835066  -0.0482126   0.0000000), wk =   0.0200000
        k(    8) = (   0.0974244  -0.0562480   0.0000000), wk =   0.0200000
        k(    9) = (   0.1113422  -0.0642834   0.0000000), wk =   0.0200000
        k(   10) = (   0.1252599  -0.0723188   0.0000000), wk =   0.0200000
        k(   11) = (   0.1391777  -0.0803543   0.0000000), wk =   0.0200000
        k(   12) = (   0.1530955  -0.0883897   0.0000000), wk =   0.0200000
        k(   13) = (   0.1670132  -0.0964251   0.0000000), wk =   0.0200000
        k(   14) = (   0.1809310  -0.1044606   0.0000000), wk =   0.0200000
        k(   15) = (   0.1948488  -0.1124960   0.0000000), wk =   0.0200000
        k(   16) = (   0.2087665  -0.1205314   0.0000000), wk =   0.0200000
        k(   17) = (   0.2226843  -0.1285668   0.0000000), wk =   0.0200000
        k(   18) = (   0.2366021  -0.1366023   0.0000000), wk =   0.0200000
        k(   19) = (   0.2505199  -0.1446377   0.0000000), wk =   0.0200000
        k(   20) = (   0.2644376  -0.1526731   0.0000000), wk =   0.0200000
        k(   21) = (   0.2783554  -0.1607085   0.0000000), wk =   0.0200000
        k(   22) = (   0.2922732  -0.1687440   0.0000000), wk =   0.0200000
        k(   23) = (   0.3061909  -0.1767794   0.0000000), wk =   0.0200000
        k(   24) = (   0.3201087  -0.1848148   0.0000000), wk =   0.0200000
        k(   25) = (   0.3340265  -0.1928503   0.0000000), wk =   0.0200000
        k(   26) = (   0.3479442  -0.2008857   0.0000000), wk =   0.0200000
        k(   27) = (   0.3618620  -0.2089211   0.0000000), wk =   0.0200000
        k(   28) = (   0.3757798  -0.2169565   0.0000000), wk =   0.0200000
        k(   29) = (   0.3896976  -0.2249920   0.0000000), wk =   0.0200000
        k(   30) = (   0.4036153  -0.2330274   0.0000000), wk =   0.0200000
        k(   31) = (   0.4175331  -0.2410628   0.0000000), wk =   0.0200000
        k(   32) = (   0.4314509  -0.2490982   0.0000000), wk =   0.0200000
        k(   33) = (   0.4453686  -0.2571337   0.0000000), wk =   0.0200000
        k(   34) = (   0.4592864  -0.2651691   0.0000000), wk =   0.0200000
        k(   35) = (   0.4732042  -0.2732045   0.0000000), wk =   0.0200000
        k(   36) = (   0.4871219  -0.2812400   0.0000000), wk =   0.0200000
        k(   37) = (   0.5010397  -0.2892754   0.0000000), wk =   0.0200000
        k(   38) = (   0.4930921  -0.3030410   0.0000000), wk =   0.0200000
        k(   39) = (   0.4851445  -0.3168066   0.0000000), wk =   0.0200000
        k(   40) = (   0.4771970  -0.3305723   0.0000000), wk =   0.0200000
        k(   41) = (   0.4692494  -0.3443379   0.0000000), wk =   0.0200000
        k(   42) = (   0.4613018  -0.3581035   0.0000000), wk =   0.0200000
        k(   43) = (   0.4533542  -0.3718691   0.0000000), wk =   0.0200000
        k(   44) = (   0.4454066  -0.3856348   0.0000000), wk =   0.0200000
        k(   45) = (   0.4374590  -0.3994004   0.0000000), wk =   0.0200000
        k(   46) = (   0.4295114  -0.4131660   0.0000000), wk =   0.0200000
        k(   47) = (   0.4215638  -0.4269316   0.0000000), wk =   0.0200000
        k(   48) = (   0.4136162  -0.4406972   0.0000000), wk =   0.0200000
        k(   49) = (   0.4056687  -0.4544629   0.0000000), wk =   0.0200000
        k(   50) = (   0.3977211  -0.4682285   0.0000000), wk =   0.0200000
        k(   51) = (   0.3897735  -0.4819941   0.0000000), wk =   0.0200000
        k(   52) = (   0.3818259  -0.4957597   0.0000000), wk =   0.0200000
        k(   53) = (   0.3738783  -0.5095254   0.0000000), wk =   0.0200000
        k(   54) = (   0.3659307  -0.5232910   0.0000000), wk =   0.0200000
        k(   55) = (   0.3579831  -0.5370566   0.0000000), wk =   0.0200000
        k(   56) = (   0.3500355  -0.5508222   0.0000000), wk =   0.0200000
        k(   57) = (   0.3420880  -0.5645879   0.0000000), wk =   0.0200000
        k(   58) = (   0.3341404  -0.5783535   0.0000000), wk =   0.0200000
        k(   59) = (   0.3261846  -0.5645832   0.0000000), wk =   0.0200000
        k(   60) = (   0.3182289  -0.5508128   0.0000000), wk =   0.0200000
        k(   61) = (   0.3102732  -0.5370425   0.0000000), wk =   0.0200000
        k(   62) = (   0.3023175  -0.5232722   0.0000000), wk =   0.0200000
        k(   63) = (   0.2943618  -0.5095019   0.0000000), wk =   0.0200000
        k(   64) = (   0.2864060  -0.4957316   0.0000000), wk =   0.0200000
        k(   65) = (   0.2784503  -0.4819612   0.0000000), wk =   0.0200000
        k(   66) = (   0.2704946  -0.4681909   0.0000000), wk =   0.0200000
        k(   67) = (   0.2625389  -0.4544206   0.0000000), wk =   0.0200000
        k(   68) = (   0.2545831  -0.4406503   0.0000000), wk =   0.0200000
        k(   69) = (   0.2466274  -0.4268800   0.0000000), wk =   0.0200000
        k(   70) = (   0.2386717  -0.4131096   0.0000000), wk =   0.0200000
        k(   71) = (   0.2307160  -0.3993393   0.0000000), wk =   0.0200000
        k(   72) = (   0.2227602  -0.3855690   0.0000000), wk =   0.0200000
        k(   73) = (   0.2148045  -0.3717987   0.0000000), wk =   0.0200000
        k(   74) = (   0.2068488  -0.3580284   0.0000000), wk =   0.0200000
        k(   75) = (   0.1988931  -0.3442580   0.0000000), wk =   0.0200000
        k(   76) = (   0.1909374  -0.3304877   0.0000000), wk =   0.0200000
        k(   77) = (   0.1829816  -0.3167174   0.0000000), wk =   0.0200000
        k(   78) = (   0.1750259  -0.3029471   0.0000000), wk =   0.0200000
        k(   79) = (   0.1670702  -0.2891767   0.0000000), wk =   0.0200000
        k(   80) = (   0.1591145  -0.2754064   0.0000000), wk =   0.0200000
        k(   81) = (   0.1511587  -0.2616361   0.0000000), wk =   0.0200000
        k(   82) = (   0.1432030  -0.2478658   0.0000000), wk =   0.0200000
        k(   83) = (   0.1352473  -0.2340955   0.0000000), wk =   0.0200000
        k(   84) = (   0.1272916  -0.2203251   0.0000000), wk =   0.0200000
        k(   85) = (   0.1193358  -0.2065548   0.0000000), wk =   0.0200000
        k(   86) = (   0.1113801  -0.1927845   0.0000000), wk =   0.0200000
        k(   87) = (   0.1034244  -0.1790142   0.0000000), wk =   0.0200000
        k(   88) = (   0.0954687  -0.1652439   0.0000000), wk =   0.0200000
        k(   89) = (   0.0875130  -0.1514735   0.0000000), wk =   0.0200000
        k(   90) = (   0.0795572  -0.1377032   0.0000000), wk =   0.0200000
        k(   91) = (   0.0716015  -0.1239329   0.0000000), wk =   0.0200000
        k(   92) = (   0.0636458  -0.1101626   0.0000000), wk =   0.0200000
        k(   93) = (   0.0556901  -0.0963922   0.0000000), wk =   0.0200000
        k(   94) = (   0.0477343  -0.0826219   0.0000000), wk =   0.0200000
        k(   95) = (   0.0397786  -0.0688516   0.0000000), wk =   0.0200000
        k(   96) = (   0.0318229  -0.0550813   0.0000000), wk =   0.0200000
        k(   97) = (   0.0238672  -0.0413110   0.0000000), wk =   0.0200000
        k(   98) = (   0.0159114  -0.0275406   0.0000000), wk =   0.0200000
        k(   99) = (   0.0079557  -0.0137703   0.0000000), wk =   0.0200000
        k(  100) = (   0.0000000   0.0000000   0.0000000), wk =   0.0200000

                       cryst. coord.
        k(    1) = (   0.0000000   0.0000000   0.0000000), wk =   0.0200000
        k(    2) = (   0.0138889  -0.0138889   0.0000000), wk =   0.0200000
        k(    3) = (   0.0277778  -0.0277778   0.0000000), wk =   0.0200000
        k(    4) = (   0.0416667  -0.0416667   0.0000000), wk =   0.0200000
        k(    5) = (   0.0555556  -0.0555556   0.0000000), wk =   0.0200000
        k(    6) = (   0.0694444  -0.0694444   0.0000000), wk =   0.0200000
        k(    7) = (   0.0833333  -0.0833333   0.0000000), wk =   0.0200000
        k(    8) = (   0.0972222  -0.0972222   0.0000000), wk =   0.0200000
        k(    9) = (   0.1111111  -0.1111111   0.0000000), wk =   0.0200000
        k(   10) = (   0.1250000  -0.1250000   0.0000000), wk =   0.0200000
        k(   11) = (   0.1388889  -0.1388889   0.0000000), wk =   0.0200000
        k(   12) = (   0.1527778  -0.1527778   0.0000000), wk =   0.0200000
        k(   13) = (   0.1666667  -0.1666667   0.0000000), wk =   0.0200000
        k(   14) = (   0.1805556  -0.1805556   0.0000000), wk =   0.0200000
        k(   15) = (   0.1944444  -0.1944444   0.0000000), wk =   0.0200000
        k(   16) = (   0.2083333  -0.2083333   0.0000000), wk =   0.0200000
        k(   17) = (   0.2222222  -0.2222222   0.0000000), wk =   0.0200000
        k(   18) = (   0.2361111  -0.2361111   0.0000000), wk =   0.0200000
        k(   19) = (   0.2500000  -0.2500000   0.0000000), wk =   0.0200000
        k(   20) = (   0.2638889  -0.2638889   0.0000000), wk =   0.0200000
        k(   21) = (   0.2777778  -0.2777778   0.0000000), wk =   0.0200000
        k(   22) = (   0.2916667  -0.2916667   0.0000000), wk =   0.0200000
        k(   23) = (   0.3055556  -0.3055556   0.0000000), wk =   0.0200000
        k(   24) = (   0.3194444  -0.3194444   0.0000000), wk =   0.0200000
        k(   25) = (   0.3333333  -0.3333333   0.0000000), wk =   0.0200000
        k(   26) = (   0.3472222  -0.3472222   0.0000000), wk =   0.0200000
        k(   27) = (   0.3611111  -0.3611111   0.0000000), wk =   0.0200000
        k(   28) = (   0.3750000  -0.3750000   0.0000000), wk =   0.0200000
        k(   29) = (   0.3888889  -0.3888889   0.0000000), wk =   0.0200000
        k(   30) = (   0.4027778  -0.4027778   0.0000000), wk =   0.0200000
        k(   31) = (   0.4166667  -0.4166667   0.0000000), wk =   0.0200000
        k(   32) = (   0.4305556  -0.4305556   0.0000000), wk =   0.0200000
        k(   33) = (   0.4444444  -0.4444444   0.0000000), wk =   0.0200000
        k(   34) = (   0.4583333  -0.4583333   0.0000000), wk =   0.0200000
        k(   35) = (   0.4722222  -0.4722222   0.0000000), wk =   0.0200000
        k(   36) = (   0.4861111  -0.4861111   0.0000000), wk =   0.0200000
        k(   37) = (   0.5000000  -0.5000000   0.0000000), wk =   0.0200000
        k(   38) = (   0.4920662  -0.5079338   0.0000000), wk =   0.0200000
        k(   39) = (   0.4841324  -0.5158676   0.0000000), wk =   0.0200000
        k(   40) = (   0.4761986  -0.5238014   0.0000000), wk =   0.0200000
        k(   41) = (   0.4682648  -0.5317352   0.0000000), wk =   0.0200000
        k(   42) = (   0.4603310  -0.5396690   0.0000000), wk =   0.0200000
        k(   43) = (   0.4523971  -0.5476029   0.0000000), wk =   0.0200000
        k(   44) = (   0.4444633  -0.5555367   0.0000000), wk =   0.0200000
        k(   45) = (   0.4365295  -0.5634705   0.0000000), wk =   0.0200000
        k(   46) = (   0.4285957  -0.5714043   0.0000000), wk =   0.0200000
        k(   47) = (   0.4206619  -0.5793381   0.0000000), wk =   0.0200000
        k(   48) = (   0.4127281  -0.5872719   0.0000000), wk =   0.0200000
        k(   49) = (   0.4047943  -0.5952057   0.0000000), wk =   0.0200000
        k(   50) = (   0.3968605  -0.6031395   0.0000000), wk =   0.0200000
        k(   51) = (   0.3889267  -0.6110733   0.0000000), wk =   0.0200000
        k(   52) = (   0.3809929  -0.6190071   0.0000000), wk =   0.0200000
        k(   53) = (   0.3730590  -0.6269410   0.0000000), wk =   0.0200000
        k(   54) = (   0.3651252  -0.6348748   0.0000000), wk =   0.0200000
        k(   55) = (   0.3571914  -0.6428086   0.0000000), wk =   0.0200000
        k(   56) = (   0.3492576  -0.6507424   0.0000000), wk =   0.0200000
        k(   57) = (   0.3413238  -0.6586762   0.0000000), wk =   0.0200000
        k(   58) = (   0.3333900  -0.6666100   0.0000000), wk =   0.0200000
        k(   59) = (   0.3254521  -0.6507383   0.0000000), wk =   0.0200000
        k(   60) = (   0.3175143  -0.6348667   0.0000000), wk =   0.0200000
        k(   61) = (   0.3095764  -0.6189950   0.0000000), wk =   0.0200000
        k(   62) = (   0.3016386  -0.6031233   0.0000000), wk =   0.0200000
        k(   63) = (   0.2937007  -0.5872517   0.0000000), wk =   0.0200000
        k(   64) = (   0.2857629  -0.5713800   0.0000000), wk =   0.0200000
        k(   65) = (   0.2778250  -0.5555083   0.0000000), wk =   0.0200000
        k(   66) = (   0.2698871  -0.5396367   0.0000000), wk =   0.0200000
        k(   67) = (   0.2619493  -0.5237650   0.0000000), wk =   0.0200000
        k(   68) = (   0.2540114  -0.5078933   0.0000000), wk =   0.0200000
        k(   69) = (   0.2460736  -0.4920217   0.0000000), wk =   0.0200000
        k(   70) = (   0.2381357  -0.4761500   0.0000000), wk =   0.0200000
        k(   71) = (   0.2301979  -0.4602783   0.0000000), wk =   0.0200000
        k(   72) = (   0.2222600  -0.4444067   0.0000000), wk =   0.0200000
        k(   73) = (   0.2143221  -0.4285350   0.0000000), wk =   0.0200000
        k(   74) = (   0.2063843  -0.4126633   0.0000000), wk =   0.0200000
        k(   75) = (   0.1984464  -0.3967917   0.0000000), wk =   0.0200000
        k(   76) = (   0.1905086  -0.3809200   0.0000000), wk =   0.0200000
        k(   77) = (   0.1825707  -0.3650483   0.0000000), wk =   0.0200000
        k(   78) = (   0.1746329  -0.3491767   0.0000000), wk =   0.0200000
        k(   79) = (   0.1666950  -0.3333050   0.0000000), wk =   0.0200000
        k(   80) = (   0.1587571  -0.3174333   0.0000000), wk =   0.0200000
        k(   81) = (   0.1508193  -0.3015617   0.0000000), wk =   0.0200000
        k(   82) = (   0.1428814  -0.2856900   0.0000000), wk =   0.0200000
        k(   83) = (   0.1349436  -0.2698183   0.0000000), wk =   0.0200000
        k(   84) = (   0.1270057  -0.2539467   0.0000000), wk =   0.0200000
        k(   85) = (   0.1190679  -0.2380750   0.0000000), wk =   0.0200000
        k(   86) = (   0.1111300  -0.2222033   0.0000000), wk =   0.0200000
        k(   87) = (   0.1031921  -0.2063317   0.0000000), wk =   0.0200000
        k(   88) = (   0.0952543  -0.1904600   0.0000000), wk =   0.0200000
        k(   89) = (   0.0873164  -0.1745883   0.0000000), wk =   0.0200000
        k(   90) = (   0.0793786  -0.1587167   0.0000000), wk =   0.0200000
        k(   91) = (   0.0714407  -0.1428450   0.0000000), wk =   0.0200000
        k(   92) = (   0.0635029  -0.1269733   0.0000000), wk =   0.0200000
        k(   93) = (   0.0555650  -0.1111017   0.0000000), wk =   0.0200000
        k(   94) = (   0.0476271  -0.0952300   0.0000000), wk =   0.0200000
        k(   95) = (   0.0396893  -0.0793583   0.0000000), wk =   0.0200000
        k(   96) = (   0.0317514  -0.0634867   0.0000000), wk =   0.0200000
        k(   97) = (   0.0238136  -0.0476150   0.0000000), wk =   0.0200000
        k(   98) = (   0.0158757  -0.0317433   0.0000000), wk =   0.0200000
        k(   99) = (   0.0079379  -0.0158717   0.0000000), wk =   0.0200000
        k(  100) = (   0.0000000   0.0000000   0.0000000), wk =   0.0200000

     Dense  grid:   251567 G-vectors     FFT dimensions: (  45,  45, 270)

     Smooth grid:    63583 G-vectors     FFT dimensions: (  30,  30, 180)

     Dynamical RAM for                 wfc:       0.76 MB

     Dynamical RAM for     wfc (w. buffer):       0.76 MB

     Dynamical RAM for           str. fact:       0.48 MB

     Dynamical RAM for           local pot:       0.00 MB

     Dynamical RAM for          nlocal pot:       0.26 MB

     Dynamical RAM for                qrad:       1.47 MB

     Dynamical RAM for          rho,v,vnew:       1.51 MB

     Dynamical RAM for           G-vectors:       0.93 MB

     Dynamical RAM for          h,s,v(r/c):       7.32 MB

     Dynamical RAM for          <psi|beta>:       0.05 MB

     Dynamical RAM for                 psi:       3.03 MB

     Dynamical RAM for                hpsi:       3.03 MB

     Dynamical RAM for      wfcinit/wfcrot:       1.74 MB

     Estimated static dynamical RAM per process >       7.44 MB

     Estimated max dynamical RAM per process >      20.87 MB

     Estimated total dynamical RAM >     333.95 MB

     The potential is recalculated from file :
     ./out/1x1_MoS2.save/charge-density

     Starting wfcs are   48 randomized atomic wfcs +   52 random wfcs

     Band Structure Calculation
     Davidson diagonalization with overlap

     Computing kpt #:     1  of   100
     total cpu time spent up to now is        4.9 secs

     Computing kpt #:     2  of   100
     total cpu time spent up to now is        7.1 secs

     Computing kpt #:     3  of   100
     total cpu time spent up to now is        9.7 secs

     Computing kpt #:     4  of   100
     total cpu time spent up to now is       12.2 secs

     Computing kpt #:     5  of   100
     total cpu time spent up to now is       14.7 secs

     Computing kpt #:     6  of   100
     total cpu time spent up to now is       17.3 secs

     Computing kpt #:     7  of   100
     total cpu time spent up to now is       19.8 secs

     Computing kpt #:     8  of   100
     total cpu time spent up to now is       22.2 secs

     Computing kpt #:     9  of   100
     total cpu time spent up to now is       24.8 secs

     Computing kpt #:    10  of   100
     total cpu time spent up to now is       27.1 secs

     Computing kpt #:    11  of   100
     total cpu time spent up to now is       29.4 secs

     Computing kpt #:    12  of   100
     total cpu time spent up to now is       31.6 secs

     Computing kpt #:    13  of   100
     total cpu time spent up to now is       33.9 secs

     Computing kpt #:    14  of   100
     total cpu time spent up to now is       36.3 secs

     Computing kpt #:    15  of   100
     total cpu time spent up to now is       38.7 secs

     Computing kpt #:    16  of   100
     total cpu time spent up to now is       41.2 secs

     Computing kpt #:    17  of   100
     total cpu time spent up to now is       43.8 secs

     Computing kpt #:    18  of   100
     total cpu time spent up to now is       46.1 secs

     Computing kpt #:    19  of   100
     total cpu time spent up to now is       48.5 secs

     Computing kpt #:    20  of   100
     total cpu time spent up to now is       50.9 secs

     Computing kpt #:    21  of   100
     total cpu time spent up to now is       53.4 secs

     Computing kpt #:    22  of   100
     total cpu time spent up to now is       55.9 secs

     Computing kpt #:    23  of   100
     total cpu time spent up to now is       58.4 secs

     Computing kpt #:    24  of   100
     total cpu time spent up to now is       60.9 secs

     Computing kpt #:    25  of   100
     total cpu time spent up to now is       63.5 secs

     Computing kpt #:    26  of   100
     total cpu time spent up to now is       66.1 secs

     Computing kpt #:    27  of   100
     total cpu time spent up to now is       68.5 secs

     Computing kpt #:    28  of   100
     total cpu time spent up to now is       71.0 secs

     Computing kpt #:    29  of   100
     total cpu time spent up to now is       73.5 secs

     Computing kpt #:    30  of   100
     total cpu time spent up to now is       75.9 secs

     Computing kpt #:    31  of   100
     total cpu time spent up to now is       78.3 secs

     Computing kpt #:    32  of   100
     total cpu time spent up to now is       80.7 secs

     Computing kpt #:    33  of   100
     total cpu time spent up to now is       83.2 secs

     Computing kpt #:    34  of   100
     total cpu time spent up to now is       85.6 secs

     Computing kpt #:    35  of   100
     total cpu time spent up to now is       88.1 secs

     Computing kpt #:    36  of   100
     total cpu time spent up to now is       90.5 secs

     Computing kpt #:    37  of   100
     total cpu time spent up to now is       93.1 secs

     Computing kpt #:    38  of   100
     total cpu time spent up to now is       95.9 secs

     Computing kpt #:    39  of   100
     total cpu time spent up to now is       98.5 secs

     Computing kpt #:    40  of   100
     total cpu time spent up to now is      101.1 secs

     Computing kpt #:    41  of   100
     total cpu time spent up to now is      103.8 secs

     Computing kpt #:    42  of   100
     total cpu time spent up to now is      106.4 secs

     Computing kpt #:    43  of   100
     total cpu time spent up to now is      108.9 secs

     Computing kpt #:    44  of   100
     total cpu time spent up to now is      111.5 secs

     Computing kpt #:    45  of   100
     total cpu time spent up to now is      114.2 secs

     Computing kpt #:    46  of   100
     total cpu time spent up to now is      116.8 secs

     Computing kpt #:    47  of   100
     total cpu time spent up to now is      119.3 secs

     Computing kpt #:    48  of   100
     total cpu time spent up to now is      121.8 secs

     Computing kpt #:    49  of   100
     total cpu time spent up to now is      124.3 secs

     Computing kpt #:    50  of   100
     total cpu time spent up to now is      126.7 secs

     Computing kpt #:    51  of   100
     total cpu time spent up to now is      129.1 secs

     Computing kpt #:    52  of   100
     total cpu time spent up to now is      131.6 secs

     Computing kpt #:    53  of   100
     total cpu time spent up to now is      134.3 secs

     Computing kpt #:    54  of   100
     total cpu time spent up to now is      136.7 secs

     Computing kpt #:    55  of   100
     total cpu time spent up to now is      139.1 secs

     Computing kpt #:    56  of   100
     total cpu time spent up to now is      141.4 secs

     Computing kpt #:    57  of   100
     total cpu time spent up to now is      143.5 secs

     Computing kpt #:    58  of   100
     total cpu time spent up to now is      145.8 secs

     Computing kpt #:    59  of   100
     total cpu time spent up to now is      148.1 secs

     Computing kpt #:    60  of   100
     total cpu time spent up to now is      150.4 secs

     Computing kpt #:    61  of   100
     total cpu time spent up to now is      152.8 secs

     Computing kpt #:    62  of   100
     total cpu time spent up to now is      155.4 secs

     Computing kpt #:    63  of   100
     total cpu time spent up to now is      157.7 secs

     Computing kpt #:    64  of   100
     total cpu time spent up to now is      160.1 secs

     Computing kpt #:    65  of   100
     total cpu time spent up to now is      162.5 secs

     Computing kpt #:    66  of   100
     total cpu time spent up to now is      165.0 secs

     Computing kpt #:    67  of   100
     total cpu time spent up to now is      167.4 secs

     Computing kpt #:    68  of   100
     total cpu time spent up to now is      169.8 secs

     Computing kpt #:    69  of   100
     total cpu time spent up to now is      172.3 secs

     Computing kpt #:    70  of   100
     total cpu time spent up to now is      174.9 secs

     Computing kpt #:    71  of   100
     total cpu time spent up to now is      177.5 secs

     Computing kpt #:    72  of   100
     total cpu time spent up to now is      180.2 secs

     Computing kpt #:    73  of   100
     total cpu time spent up to now is      182.9 secs

     Computing kpt #:    74  of   100
     total cpu time spent up to now is      185.4 secs

     Computing kpt #:    75  of   100
     total cpu time spent up to now is      188.1 secs

     Computing kpt #:    76  of   100
     total cpu time spent up to now is      190.6 secs

     Computing kpt #:    77  of   100
     total cpu time spent up to now is      193.2 secs

     Computing kpt #:    78  of   100
     total cpu time spent up to now is      195.8 secs

     Computing kpt #:    79  of   100
     total cpu time spent up to now is      198.2 secs

     Computing kpt #:    80  of   100
     total cpu time spent up to now is      200.7 secs

     Computing kpt #:    81  of   100
     total cpu time spent up to now is      203.2 secs

     Computing kpt #:    82  of   100
     total cpu time spent up to now is      205.7 secs

     Computing kpt #:    83  of   100
     total cpu time spent up to now is      208.1 secs

     Computing kpt #:    84  of   100
     total cpu time spent up to now is      210.5 secs

     Computing kpt #:    85  of   100
     total cpu time spent up to now is      213.0 secs

     Computing kpt #:    86  of   100
     total cpu time spent up to now is      215.5 secs

     Computing kpt #:    87  of   100
     total cpu time spent up to now is      217.9 secs

     Computing kpt #:    88  of   100
     total cpu time spent up to now is      220.3 secs

     Computing kpt #:    89  of   100
     total cpu time spent up to now is      222.6 secs

     Computing kpt #:    90  of   100
     total cpu time spent up to now is      225.1 secs

     Computing kpt #:    91  of   100
     total cpu time spent up to now is      227.6 secs

     Computing kpt #:    92  of   100
     total cpu time spent up to now is      230.1 secs

     Computing kpt #:    93  of   100
     total cpu time spent up to now is      232.7 secs

     Computing kpt #:    94  of   100
     total cpu time spent up to now is      235.3 secs

     Computing kpt #:    95  of   100
     total cpu time spent up to now is      237.8 secs

     Computing kpt #:    96  of   100
     total cpu time spent up to now is      240.2 secs

     Computing kpt #:    97  of   100
     total cpu time spent up to now is      242.6 secs

     Computing kpt #:    98  of   100
     total cpu time spent up to now is      245.0 secs

     Computing kpt #:    99  of   100
     total cpu time spent up to now is      247.4 secs

     Computing kpt #:   100  of   100
     total cpu time spent up to now is      249.7 secs

     ethr =  5.56E-09,  avg # of iterations = 15.3

     total cpu time spent up to now is      249.7 secs

     End of band structure calculation

          k = 0.0000 0.0000 0.0000 (  7927 PWs)   bands (ev):

   -15.5759 -14.3483  -7.0180  -3.7415  -3.7377  -3.1282  -2.5552  -2.5517
    -1.2493   1.9961   1.9970   2.3081   2.3121   4.4634   4.6829   5.3833
     5.7713   6.9599   8.2525   8.3344   9.8710   9.8766  10.4729  11.7514
    12.1487  12.1562  12.9209  14.9543  15.6906  15.7348  15.7373  15.9641
    16.3872  16.3911  18.9965  19.2364  20.6968  21.2009  22.8577  22.8643
    24.4230  24.4308  24.6237  25.0883  25.1698  25.2213  25.2229  25.2277
    25.2300  25.7693  25.9411  25.9472  25.9592  26.4308  26.4777  26.4851
    26.9278  26.9633  27.0794  27.0869  27.1992  27.2273  27.2343  27.5793
    27.5860  28.1409  28.8076  28.9323  28.9399  29.4353  29.7784  29.7849
    29.9415  29.9642  29.9724  30.8698  30.8759  30.9977  31.7824  32.0884
    32.0958  32.3906  33.4431  33.4479  33.6744  33.6830  33.8294  33.9077
    34.3885  35.0501  35.0544  35.3473  35.5134  35.5192  36.3678  36.6813
    36.9472  36.9474  37.5855  37.5918

          k = 0.0139-0.0080 0.0000 (  7947 PWs)   bands (ev):

   -15.5730 -14.3465  -7.0147  -3.7450  -3.7383  -3.1458  -2.5606  -2.5384
    -1.2499   1.9914   2.0025   2.3001   2.3038   4.4695   4.6870   5.3962
     5.7783   6.9637   8.2676   8.3380   9.8654   9.8815  10.4760  11.7607
    12.1256  12.1480  12.9205  14.9592  15.6917  15.7434  15.7451  15.9681
    16.3753  16.3868  19.0036  19.2748  20.7012  21.1974  22.8454  22.8667
    24.0877  24.3526  24.8082  24.8448  25.1471  25.1481  25.1536  25.2937
    25.3545  25.7854  25.9499  25.9683  25.9887  26.3831  26.4763  26.5998
    26.6432  26.9753  27.0228  27.0486  27.2999  27.3249  27.3872  27.6432
    27.6934  28.3434  28.7089  28.8323  28.8517  29.4772  29.5471  29.8621
    29.9053  29.9433  30.2872  30.8418  30.9368  31.0395  31.9050  32.0044
    32.0251  32.3522  33.4013  33.4980  33.5496  33.6394  33.9108  34.0478
    34.3907  35.0697  35.0867  35.3446  35.4505  35.5439  36.3834  36.5090
    36.9392  37.1821  37.5644  37.5729

          k = 0.0278-0.0161 0.0000 (  7951 PWs)   bands (ev):

   -15.5640 -14.3411  -7.0048  -3.7669  -3.7288  -3.1941  -2.5765  -2.5034
    -1.2521   1.9750   2.0214   2.2648   2.2912   4.4873   4.6992   5.4338
     5.8000   6.9751   8.3124   8.3489   9.8330   9.9131  10.4851  11.7877
    12.0381  12.1460  12.9186  14.9694  15.6304  15.7690  15.8372  15.9786
    16.3398  16.3756  19.0252  19.3860  20.7145  21.1865  22.7897  22.8927
    23.6349  24.1894  24.4004  24.6747  24.9926  25.0005  25.3787  25.3848
    25.4601  25.6020  25.8638  25.8899  26.1776  26.3321  26.4574  26.5555
    26.7820  26.8357  26.9912  27.2009  27.2176  27.4701  27.6875  27.9184
    27.9771  28.4099  28.6727  28.7358  28.7920  29.1251  29.5450  29.7655
    30.0526  30.2394  30.3304  30.9736  31.1013  31.1342  31.7977  31.8624
    32.1791  32.3129  33.0432  33.5455  33.6356  33.6645  33.9965  34.1919
    34.4141  35.1348  35.1851  35.2781  35.3159  35.6315  36.3532  36.4156
    36.9243  37.5036  37.5270  37.5353

          k = 0.0418-0.0241 0.0000 (  7951 PWs)   bands (ev):

   -15.5491 -14.3322  -6.9884  -3.8027  -3.7131  -3.2640  -2.6025  -2.4560
    -1.2559   1.9494   2.0525   2.2085   2.2704   4.5158   4.7195   5.4929
     5.8387   6.9940   8.3666   8.3852   9.7823   9.9654  10.4995  11.8297
    11.9050  12.1431  12.9139  14.9726  15.5363  15.8110  15.9907  15.9960
    16.2816  16.3637  19.0613  19.5595  20.7365  21.1668  22.6978  22.9320
    23.1640  23.9689  23.9911  24.3822  24.6991  24.7998  25.2075  25.5008
    25.5976  25.6492  25.7297  25.8151  25.8480  26.5154  26.5823  26.5936
    26.7442  26.9106  27.1168  27.2400  27.4237  27.6632  27.7964  28.1694
    28.3110  28.3992  28.4816  28.6585  28.7539  29.2341  29.5985  29.6675
    30.1575  30.2754  30.4857  31.1190  31.2829  31.3120  31.6513  31.7619
    32.2864  32.3927  32.8066  33.4157  33.6397  33.8057  34.1837  34.1849
    34.4582  35.0386  35.2452  35.2536  35.3209  35.8078  36.3242  36.4369
    36.9132  37.4103  37.5244  37.7983

          k = 0.0557-0.0321 0.0000 (  7943 PWs)   bands (ev):

   -15.5284 -14.3198  -6.9658  -3.8516  -3.6912  -3.3479  -2.6381  -2.4045
    -1.2619   1.9169   2.0949   2.1345   2.2421   4.5534   4.7478   5.5674
     5.8986   7.0205   8.3905   8.4832   9.7173  10.0378  10.5180  11.7408
    11.8833  12.1403  12.9046  14.9483  15.4439  15.8686  15.9948  16.2022
    16.2070  16.3623  19.1124  19.7823  20.7672  21.1363  22.5629  22.6865
    22.9779  23.5506  23.7824  24.0811  24.3160  24.6054  24.9048  25.2000
    25.5255  25.5986  25.7414  25.7905  26.0023  26.4737  26.4816  26.6576
    26.9822  27.0200  27.0507  27.5022  27.6417  27.7806  27.9373  28.2012
    28.3817  28.4162  28.5163  28.6495  28.9216  29.4414  29.6445  29.8507
    30.0438  30.4781  30.5482  31.0250  31.4469  31.5397  31.5926  31.9937
    32.1632  32.2766  33.0521  33.2720  33.5732  33.9527  34.1131  34.3240
    34.4841  34.7963  35.1741  35.3556  35.4696  36.0761  36.4011  36.4470
    36.9026  37.2958  37.5741  37.7018

          k = 0.0696-0.0402 0.0000 (  7951 PWs)   bands (ev):

   -15.5018 -14.3038  -6.9370  -3.9124  -3.6632  -3.4408  -2.6824  -2.3546
    -1.2706   1.8806   2.0465   2.1475   2.2070   4.5990   4.7840   5.6487
     5.9861   7.0543   8.4197   8.6025   9.6428  10.1294  10.5379  11.5604
    11.9443  12.1386  12.8884  14.8720  15.3883  15.9404  15.9800  16.1031
    16.3846  16.4593  19.1781  20.0407  20.8061  21.0915  22.2092  22.3649
    23.0194  23.1782  23.5728  23.7759  23.9030  24.4269  24.6321  24.7479
    25.3085  25.5449  25.7503  25.7859  26.0040  26.5147  26.5164  26.6181
    26.8838  27.1487  27.2160  27.7259  27.7610  27.8706  27.9524  28.1391
    28.4914  28.5632  28.6160  28.8943  29.3034  29.3435  29.6818  30.0336
    30.3879  30.4358  30.5724  31.1057  31.3452  31.6562  31.7641  32.0382
    32.1254  32.4504  33.1354  33.3849  33.5119  33.9721  34.0717  34.3871
    34.4971  34.6686  35.1499  35.3664  35.6077  36.3647  36.4814  36.5655
    36.8748  37.1757  37.4806  37.6804

          k = 0.0835-0.0482 0.0000 (  7965 PWs)   bands (ev):

   -15.4695 -14.2845  -6.9026  -3.9840  -3.6293  -3.5397  -2.7344  -2.3101
    -1.2827   1.8437   1.9485   2.1657   2.2093   4.6514   4.8280   5.7293
     6.1060   7.0953   8.4531   8.7381   9.5634  10.2394  10.5541  11.3802
    12.0083  12.1391  12.8637  14.7407  15.3825  15.9419  15.9865  16.0251
    16.4370  16.7433  19.2574  20.3210  20.8517  21.0261  21.7389  22.0882
    22.8648  23.0399  23.3665  23.4603  23.5076  24.2792  24.3195  24.3807
    25.0929  25.3483  25.6513  25.7876  25.8425  26.2577  26.6962  26.7087
    27.0753  27.2235  27.2870  27.3967  27.7276  27.9570  28.2668  28.4174
    28.6844  28.7262  28.7627  28.9636  29.3939  29.6152  29.7427  30.0958
    30.4701  30.5612  30.9096  31.2478  31.3293  31.4427  31.9579  32.1174
    32.2691  32.7289  33.0346  33.5129  33.5360  33.7914  34.2101  34.4184
    34.5108  34.7370  35.1788  35.2936  35.7075  36.5346  36.5454  36.7748
    36.8000  37.0726  37.3802  37.6544

          k = 0.0974-0.0562 0.0000 (  7963 PWs)   bands (ev):

   -15.4316 -14.2619  -6.8629  -4.0646  -3.6429  -3.5897  -2.7931  -2.2737
    -1.2993   1.8097   1.8446   2.1192   2.2788   4.7101   4.8797   5.8064
     6.2574   7.1434   8.4892   8.8829   9.4839  10.3665  10.5564  11.2206
    12.0702  12.1433  12.8306  14.5761  15.4125  15.8542  15.8849  16.1210
    16.5173  17.0512  19.3473  20.5995  20.8984  20.9255  21.2958  21.7636
    22.5633  23.0197  23.1249  23.1658  23.1826  23.9328  24.1423  24.1735
    24.8911  25.1228  25.4709  25.5280  25.6771  26.1670  26.7480  26.9274
    27.0651  27.1038  27.2389  27.4512  27.8942  27.9559  28.4521  28.6197
    28.7505  28.9178  28.9815  28.9962  29.6003  29.6985  29.9933  30.2573
    30.3680  30.8213  30.9644  31.4297  31.4656  31.6646  32.0753  32.1455
    32.4823  32.8273  33.0165  33.5098  33.5187  33.6900  34.3866  34.4537
    34.6297  34.8973  35.2360  35.2471  35.7363  36.5811  36.6046  36.6560
    36.7880  37.0147  37.5841  37.6159

          k = 0.1113-0.0643 0.0000 (  7961 PWs)   bands (ev):

   -15.3882 -14.2359  -6.8186  -4.1528  -3.7493  -3.5445  -2.8575  -2.2473
    -1.3211   1.7388   1.7817   2.0686   2.3547   4.7746   4.9388   5.8817
     6.4350   7.1981   8.5263   9.0271   9.4089  10.5095  10.5296  11.1083
    12.1234  12.1523  12.7916  14.3986  15.4647  15.7085  15.8158  16.2265
    16.6202  17.3767  19.4396  20.6541  20.7607  20.9816  21.0540  21.4593
    22.2207  22.7640  22.9464  22.9580  22.9719  23.6025  23.9117  24.1018
    24.7224  24.8613  25.2546  25.2797  25.3419  26.2940  26.4399  26.8540
    27.1081  27.1619  27.2726  27.6593  27.8957  28.2418  28.4976  28.5185
    28.6006  29.0579  29.2594  29.4083  29.7944  29.8763  30.0404  30.2625
    30.7028  30.7134  31.0599  31.7061  31.9295  31.9988  32.0793  32.2519
    32.5921  32.7660  33.1185  33.2283  33.4842  33.9924  34.3781  34.5069
    34.8060  35.0739  35.3362  35.3784  35.6718  36.4549  36.4864  36.6384
    36.8071  37.0201  37.5702  37.9463

          k = 0.1253-0.0723 0.0000 (  7977 PWs)   bands (ev):

   -15.3394 -14.2069  -6.7703  -4.2469  -3.8581  -3.4941  -2.9265  -2.2321
    -1.3494   1.6346   1.7625   2.0147   2.4356   4.8446   5.0052   5.9577
     6.6318   7.2591   8.5626   9.1548   9.3431  10.4711  10.6670  11.0615
    12.1584  12.1674  12.7538  14.2202  15.5319  15.5515  15.7395  16.3398
    16.7419  17.7140  19.5131  20.2687  20.5155  21.0820  21.2189  21.2278
    21.8645  22.3862  22.7857  22.8022  22.8238  23.3382  23.6842  24.0228
    24.5530  24.6214  24.9704  25.0485  25.0886  26.0811  26.4498  26.5914
    27.1614  27.1866  27.3639  27.8344  27.9213  28.4471  28.4516  28.4583
    28.5290  29.2946  29.4263  29.8205  29.9115  29.9435  30.1780  30.1901
    30.8763  30.8889  31.4047  31.9961  32.0460  32.2068  32.3715  32.4544
    32.6010  32.7567  32.9453  33.3141  33.5259  34.2202  34.3621  34.6358
    34.8558  35.2313  35.4189  35.5218  35.7217  36.2350  36.4018  36.6614
    36.8574  37.0774  37.5846  37.8208

          k = 0.1392-0.0804 0.0000 (  7961 PWs)   bands (ev):

   -15.2855 -14.1748  -6.7189  -4.3451  -3.9690  -3.4387  -2.9991  -2.2287
    -1.3850   1.5355   1.7542   1.9587   2.5202   4.9200   5.0786   6.0361
     6.8404   7.3258   8.5966   9.2424   9.2913  10.4135  10.8373  11.0703
    12.1631  12.1901  12.7284  14.0490  15.3851  15.6109  15.6593  16.4590
    16.8794  18.0564  19.5071  19.8353  20.2604  20.9970  21.1524  21.4184
    21.5704  22.0305  22.6078  22.6660  22.6731  23.1532  23.4552  23.8942
    24.2187  24.6096  24.6744  24.8122  24.9019  25.7429  26.3309  26.6011
    26.9992  27.2598  27.4856  27.7685  27.8052  28.4615  28.5120  28.5694
    28.7660  29.4073  29.5394  29.8181  30.0153  30.1081  30.3364  30.4872
    30.9700  31.2616  31.8171  31.8755  32.2147  32.4109  32.4539  32.4910
    32.7087  32.8923  33.0347  33.5534  33.6575  34.2607  34.4063  34.8609
    34.9091  35.3142  35.3194  35.5023  36.0408  36.0587  36.3851  36.7302
    36.9455  37.1574  37.6044  37.6723

          k = 0.1531-0.0884 0.0000 (  7945 PWs)   bands (ev):

   -15.2266 -14.1397  -6.6656  -4.4456  -4.0815  -3.3788  -3.0744  -2.2370
    -1.4287   1.4446   1.7583   1.9015   2.6070   5.0006   5.1588   6.1179
     7.0526   7.3974   8.6285   9.2575   9.2627  10.4034  11.0186  11.1126
    12.1290  12.2212  12.7246  13.8913  15.2116  15.5778  15.6998  16.5823
    17.0302  18.3887  19.3214  19.4165  20.1013  20.7433  21.1855  21.4012
    21.4119  21.8323  22.4388  22.4867  22.5450  23.0757  23.2216  23.7222
    23.8964  24.3662  24.6132  24.6578  24.7217  25.4387  26.0846  26.6689
    26.8951  27.3264  27.4975  27.5217  27.6029  28.5929  28.7052  28.7748
    28.8214  29.4744  29.5958  29.6969  30.1761  30.3945  30.7062  30.7859
    31.0574  31.5769  31.7556  31.9898  32.3056  32.3344  32.3558  32.8296
    32.8302  33.0340  33.4584  33.8002  33.9287  34.2250  34.5042  35.0113
    35.0277  35.0810  35.2577  35.6590  36.0161  36.2005  36.4097  36.8793
    37.0882  37.2355  37.6175  37.6212

          k = 0.1670-0.0964 0.0000 (  7955 PWs)   bands (ev):

   -15.1631 -14.1020  -6.6118  -4.5466  -4.1956  -3.3146  -3.1515  -2.2566
    -1.4809   1.3644   1.7756   1.8441   2.6949   5.0862   5.2453   6.2037
     7.2582   7.4726   8.6621   9.2082   9.2442  10.4605  11.1737  11.2087
    12.0593  12.2620  12.7412  13.7530  15.0334  15.4972  15.7976  16.7078
    17.1917  18.6206  18.9824  19.1046  19.9338  20.5614  20.9516  21.3355
    21.4190  21.7739  22.2788  22.2949  22.3979  22.9921  23.1282  23.5295
    23.6106  24.0484  24.4378  24.5491  24.7166  25.1759  25.8691  26.5360
    26.9263  27.3005  27.3175  27.4291  27.4355  28.6965  28.8102  28.8301
    28.9499  29.4971  29.7181  29.7791  30.4242  30.7102  31.0281  31.0560
    31.1680  31.5655  31.6911  31.8120  32.1175  32.5445  32.6689  33.0594
    33.1001  33.1694  33.8238  34.0113  34.1591  34.2995  34.6859  34.8687
    35.0642  35.0725  35.2293  35.8251  36.0971  36.2609  36.5254  36.9508
    37.2210  37.2994  37.6229  37.8092

          k = 0.1809-0.1045 0.0000 (  7949 PWs)   bands (ev):

   -15.0950 -14.0617  -6.5591  -4.6461  -4.3111  -3.2466  -3.2296  -2.2863
    -1.5416   1.2970   1.7874   1.8060   2.7827   5.1766   5.3379   6.2936
     7.4436   7.5496   8.7054   9.1001   9.2517  10.5676  11.2458  11.4048
    11.9668  12.3132  12.7685  13.6402  14.8532  15.4199  15.9029  16.8337
    17.3601  18.4192  18.5853  19.2249  19.6223  20.5252  20.5802  21.3345
    21.5189  21.6710  22.0960  22.1284  22.2131  22.7936  23.2744  23.3295
    23.3674  23.7278  24.2802  24.3848  24.7386  24.9630  25.7117  26.3472
    26.8034  27.0356  27.3230  27.3269  27.4858  28.5293  28.7576  29.0253
    29.0669  29.6278  29.9045  30.0180  30.6849  31.0301  31.1097  31.3037
    31.3095  31.3898  31.6082  31.7896  31.8906  32.8514  32.9988  33.1801
    33.3602  33.3839  34.0087  34.0826  34.1997  34.6893  34.7864  34.8372
    34.9539  35.1532  35.4807  35.8630  36.2150  36.3563  36.8118  36.9474
    37.2616  37.3488  37.6296  38.1657

          k = 0.1948-0.1125 0.0000 (  7935 PWs)   bands (ev):

   -15.0228 -14.0191  -6.5097  -4.7420  -4.4279  -3.3080  -3.1754  -2.3247
    -1.6099   1.2437   1.7324   1.8489   2.8694   5.2715   5.4359   6.3875
     7.5934   7.6251   8.7678   8.9679   9.2802  10.6955  11.3255  11.6033
    11.8661  12.3757  12.7963  13.5598  14.6747  15.3490  16.0142  16.9580
    17.5266  18.0392  18.1765  19.2376  19.4920  20.2229  20.5253  21.3770
    21.5012  21.6591  21.8929  21.9876  21.9929  22.6515  23.1287  23.1628
    23.3786  23.4709  24.1379  24.2293  24.6848  24.8179  25.6389  26.1390
    26.5858  26.7448  27.2030  27.4595  27.5510  28.3708  28.5930  29.0069
    29.3308  29.8665  30.0940  30.3236  30.8948  31.0210  31.0428  31.3125
    31.3826  31.5345  31.6386  31.7210  32.0414  32.9673  33.1710  33.4886
    33.5325  33.5715  33.9464  34.1842  34.2728  34.6535  34.9090  35.0961
    35.1358  35.3960  35.7267  35.8373  36.3208  36.5803  37.0024  37.1227
    37.3041  37.3928  37.6558  38.5312

          k = 0.2088-0.1205 0.0000 (  7951 PWs)   bands (ev):

   -14.9467 -13.9743  -6.4660  -4.8321  -4.5456  -3.3860  -3.1014  -2.3702
    -1.6845   1.2051   1.6799   1.9033   2.9540   5.3706   5.5386   6.4852
     7.6942   7.6960   8.8351   8.8491   9.3341  10.8186  11.4130  11.7702
    11.7990  12.4498  12.8169  13.5184  14.5028  15.2882  16.1285  17.0789
    17.6086  17.6493  17.8478  18.8358  19.5479  20.0803  20.4876  21.3280
    21.4141  21.6877  21.7944  21.7988  21.8567  22.5614  22.9307  22.9960
    23.0983  23.5554  24.0105  24.0831  24.5547  24.7704  25.6422  25.9048
    26.3900  26.4504  27.0798  27.6008  27.6123  28.2368  28.4255  28.9519
    29.5736  30.0896  30.2792  30.6012  30.7391  30.9404  31.0101  31.2459
    31.3576  31.7862  31.8211  31.8489  32.3358  33.0514  33.1094  33.6689
    33.6721  33.7339  33.7526  34.3540  34.5833  34.6015  35.1183  35.1707
    35.3759  35.6300  35.9437  36.0590  36.3895  36.8888  37.0966  37.2190
    37.4457  37.6996  37.7223  38.7760

          k = 0.2227-0.1286 0.0000 (  7937 PWs)   bands (ev):

   -14.8671 -13.9276  -6.4308  -4.9141  -4.6643  -3.4631  -3.0254  -2.4209
    -1.7634   1.1812   1.6307   1.9677   3.0358   5.4732   5.6452   6.5864
     7.7485   7.7502   8.7211   8.9297   9.4258  10.9168  11.5117  11.6910
    11.9842  12.5360  12.8252  13.5214  14.3453  15.2411  16.2382  17.1945
    17.2752  17.2848  17.9089  18.4487  19.2507  20.2563  20.3885  21.1620
    21.3209  21.4817  21.7356  21.7669  21.9319  22.4972  22.7378  22.8336
    22.8808  23.5586  23.9007  23.9464  24.3811  24.8351  25.6446  25.6811
    26.1595  26.2392  26.9589  27.6597  27.7160  28.1340  28.2872  28.9056
    29.7534  30.1196  30.3664  30.6323  30.7675  30.8712  30.9748  31.2812
    31.3023  32.0212  32.0767  32.1170  32.6014  33.0077  33.0968  33.5583
    33.6316  33.8037  33.8248  34.7211  34.7251  34.9095  35.1413  35.3366
    35.5242  35.7502  36.1409  36.4112  36.5990  37.0704  37.1715  37.5229
    37.6262  37.8424  38.1253  38.8249

          k = 0.2366-0.1366 0.0000 (  7939 PWs)   bands (ev):

   -14.7845 -13.8793  -6.4071  -4.9857  -4.7835  -3.5388  -2.9478  -2.4751
    -1.8440   1.1716   1.5854   2.0404   3.1141   5.5788   5.7546   6.6905
     7.7647   7.7766   8.6442   8.9828   9.5646  10.9767  11.6256  11.6389
    12.1474  12.6346  12.8189  13.5710  14.2135  15.2113  16.3154  16.8804
    16.9486  17.3033  17.8866  18.2300  18.8836  20.2256  20.3979  21.0721
    21.1405  21.2763  21.6243  21.8512  22.0167  22.4271  22.5517  22.6649
    22.8381  23.4765  23.8156  23.8194  24.1921  24.9753  25.3711  25.7213
    25.8783  26.1288  26.8429  27.6727  27.7826  28.0641  28.2047  28.8950
    29.8136  29.8859  30.2909  30.7121  30.7638  30.8903  30.9209  31.4107
    31.4218  32.1816  32.3493  32.4255  32.7405  32.9622  33.0284  33.5375
    33.5632  33.9384  33.9442  34.8318  34.9532  35.2121  35.3534  35.5282
    35.5388  36.0186  36.3347  36.3923  36.9601  37.3570  37.4558  37.6376
    38.0155  38.0688  38.4027  38.8260

          k = 0.2505-0.1446 0.0000 (  7940 PWs)   bands (ev):

   -14.6991 -13.8296  -6.3976  -5.0451  -4.9029  -3.6127  -2.8694  -2.5313
    -1.9235   1.1752   1.5448   2.1195   3.1883   5.6866   5.8652   6.7966
     7.7496   7.7693   8.6179   9.0007   9.7391  10.9957  11.6214  11.7542
    12.2717  12.7454  12.7991  13.6650  14.1240  15.2003  16.2526  16.4774
    16.7773  17.4035  17.5528  18.3249  18.5146  20.0122  20.3499  20.9685
    21.0728  21.1386  21.5224  21.9335  21.9521  22.3602  22.3739  22.6951
    22.8506  23.3509  23.7024  23.7688  24.0027  25.0987  25.1345  25.6139
    25.7441  26.0512  26.7334  27.6270  27.7879  28.0234  28.2047  28.9297
    29.5981  29.7368  30.1031  30.5423  30.8780  30.9245  31.0029  31.5721
    31.5755  32.3239  32.5448  32.7079  32.7134  32.9100  33.0431  33.5752
    33.7278  34.0567  34.1634  34.7257  35.2190  35.2876  35.7185  35.7415
    35.7571  36.2042  36.3505  36.5479  37.1746  37.7201  37.7965  37.9325
    38.2323  38.3869  38.4397  38.9485

          k = 0.2644-0.1527 0.0000 (  7934 PWs)   bands (ev):

   -14.6116 -13.7788  -6.4041  -5.0917  -5.0221  -3.6842  -2.7909  -2.5878
    -1.9987   1.1909   1.5095   2.2032   3.2581   5.7955   5.9752   6.9032
     7.7127   7.7298   8.6428   8.9935   9.9257  10.9798  11.6409  11.8929
    12.3381  12.7720  12.8682  13.7965  14.0958  15.2065  15.9978  16.0854
    16.8113  17.1743  17.4939  18.1593  18.4523  19.7736  20.1693  20.8216
    20.8727  21.2752  21.4297  21.7941  21.9467  22.2054  22.3578  22.8632
    22.8643  23.2274  23.5955  23.7749  23.8202  24.8418  25.2610  25.3867
    25.7424  26.0023  26.6315  27.5261  27.7344  28.0010  28.2830  28.9999
    29.3213  29.5650  29.8689  30.3501  30.8190  31.0619  31.1456  31.6754
    31.6997  32.3347  32.6497  32.6584  32.9236  32.9567  33.2536  33.7283
    34.0196  34.2171  34.2843  34.7267  35.2503  35.4842  35.8810  36.0132
    36.0821  36.3123  36.3851  36.7908  37.4961  37.8883  37.9973  38.1616
    38.4823  38.6249  38.7355  39.0945

          k = 0.2784-0.1607 0.0000 (  7930 PWs)   bands (ev):

   -14.5225 -13.7274  -6.4271  -5.1405  -5.1261  -3.7531  -2.7132  -2.6435
    -2.0665   1.2174   1.4798   2.2896   3.3232   5.9043   6.0819   7.0066
     7.6595   7.6736   8.7066   8.9745  10.1037  10.9387  11.6920  12.0367
    12.3342  12.7500  13.0027  13.9553  14.1412  15.2170  15.6894  15.7178
    16.8005  16.9040  17.5732  17.8333  18.5434  19.5424  19.9409  20.6778
    20.7005  21.3223  21.3455  21.7022  21.8788  22.0468  22.4397  22.8415
    22.9235  23.2676  23.4985  23.6481  23.8260  24.6214  25.1453  25.3963
    25.7162  25.9819  26.5379  27.3903  27.6330  27.9793  28.4141  29.0754
    29.0863  29.3391  29.6161  30.1653  30.7457  31.1758  31.2519  31.7002
    31.7870  32.1761  32.6471  32.7410  33.1280  33.2037  33.5247  34.0031
    34.1815  34.3358  34.4296  34.9645  35.2231  35.6977  36.0403  36.0664
    36.3300  36.3491  36.7407  37.0310  37.8042  37.9599  38.0879  38.2280
    38.7570  38.8897  39.1865  39.3758

          k = 0.2923-0.1687 0.0000 (  7930 PWs)   bands (ev):

   -14.4323 -13.6756  -6.4658  -5.2576  -5.1503  -3.8190  -2.6975  -2.6368
    -2.1242   1.2536   1.4561   2.3768   3.3833   6.0115   6.1821   7.0974
     7.5998   7.6182   8.7948   8.9569  10.2586  10.8815  11.7594  12.1811
    12.2640  12.7524  13.1481  14.1264  14.2558  15.1488  15.3887  15.4547
    16.4420  16.9603  17.5799  17.6406  18.5556  19.3605  19.6955  20.4898
    20.6074  21.1921  21.2690  21.7639  21.7773  21.8989  22.5483  22.7907
    22.7965  23.4113  23.4880  23.5061  23.8681  24.4778  24.9891  25.4519
    25.6693  25.9933  26.4528  27.2337  27.4933  27.9362  28.5585  28.8900
    29.0816  29.1717  29.3577  30.0056  30.6694  31.2644  31.2899  31.6743
    31.8543  31.9778  32.7368  32.8012  33.3813  33.4745  33.8236  34.0440
    34.3472  34.6470  34.6694  35.2386  35.2669  35.7858  36.0531  36.2153
    36.4810  36.5611  37.1487  37.2092  37.7417  38.0064  38.3649  38.4670
    39.0380  39.0500  39.4664  39.9750

          k = 0.3062-0.1768 0.0000 (  7926 PWs)   bands (ev):

   -14.3417 -13.6239  -6.5177  -5.3726  -5.1675  -3.8818  -2.7489  -2.5627
    -2.1693   1.2982   1.4388   2.4629   3.4384   6.1153   6.2721   7.1485
     7.5615   7.5773   8.8965   8.9511  10.3804  10.8160  11.8227  12.1442
    12.3220  12.7996  13.3036  14.2816  14.4230  14.8712  15.1293  15.4172
    16.1120  16.8700  17.4985  17.6956  18.4541  19.2617  19.4461  20.3108
    20.5463  20.9987  21.1992  21.6695  21.7617  21.8615  22.5651  22.6425
    22.8096  23.3335  23.3405  23.7378  23.8382  24.4514  24.9121  25.4688
    25.6064  26.0413  26.3765  27.0698  27.3225  27.8510  28.5569  28.8057
    28.9119  29.0790  29.2702  29.8838  30.5994  31.2696  31.2909  31.6344
    31.8329  31.9155  32.8388  32.9008  33.5117  33.7664  34.0516  34.1309
    34.7271  34.8893  34.9400  35.3198  35.5606  35.7670  36.0618  36.4240
    36.7268  36.7513  37.3239  37.3594  37.7646  38.0348  38.6803  38.7350
    39.1903  39.3557  39.8506  39.9851

          k = 0.3201-0.1848 0.0000 (  7946 PWs)   bands (ev):

   -14.2514 -13.5727  -6.5801  -5.4848  -5.1811  -3.9411  -2.7971  -2.4914
    -2.2004   1.3499   1.4277   2.5462   3.4885   6.2126   6.3482   7.1188
     7.5601   7.5895   8.9640   9.0040  10.4618  10.7489  11.8718  11.9928
    12.4548  12.8967  13.4680  14.3488  14.5407  14.6244  14.9813  15.4108
    15.8539  16.6485  17.5716  17.7379  18.2624  19.2018  19.2233  20.1426
    20.5195  20.7946  21.1352  21.5646  21.6354  21.9342  22.4486  22.4971
    22.9254  23.2060  23.2644  23.7699  23.8749  24.4987  24.9562  25.4559
    25.5320  26.1277  26.3089  26.9173  27.1297  27.7125  28.4195  28.5206
    28.8165  29.1157  29.3520  29.8043  30.5405  31.1883  31.2188  31.6061
    31.8252  31.9685  32.8664  33.1016  33.4233  34.0692  34.2949  34.4121
    35.0750  35.1227  35.2119  35.4392  35.7146  35.8136  36.1578  36.6768
    36.8311  37.0768  37.1965  37.4434  38.0459  38.1558  38.8254  39.0597
    39.4229  39.6684  40.0773  40.2069

          k = 0.3340-0.1929 0.0000 (  7958 PWs)   bands (ev):

   -14.1622 -13.5224  -6.6498  -5.5934  -5.1941  -3.9967  -2.8418  -2.4237
    -2.2164   1.4077   1.4229   2.6251   3.5337   6.2980   6.4086   7.0188
     7.5714   7.6823   8.9976   9.1110  10.4980  10.6864  11.8237  11.9160
    12.5725  13.0184  13.6400  14.2256  14.2510  14.8456  15.0165  15.2781
    15.7712  16.4046  17.6915  17.7678  18.0320  18.9723  19.2002  19.9870
    20.5237  20.5897  21.0759  21.4655  21.5199  21.9558  22.2859  22.3811
    23.0267  23.0845  23.2035  23.7463  23.8972  24.5491  25.0850  25.4492
    25.4508  26.2401  26.2497  26.8031  26.9329  27.5232  28.2340  28.2773
    28.5564  29.3544  29.4420  29.7598  30.4936  30.9930  31.1587  31.6036
    31.9212  31.9962  32.9066  33.2736  33.3075  34.3744  34.6103  34.6198
    35.2473  35.4613  35.4703  35.5591  35.7263  35.9967  36.3686  36.8768
    36.9722  37.0094  37.4287  37.6078  38.0941  38.5921  38.8807  39.2926
    39.6829  39.9813  40.2742  40.4475

          k = 0.3479-0.2009 0.0000 (  7958 PWs)   bands (ev):

   -14.0748 -13.4736  -6.7240  -5.6975  -5.2085  -4.0484  -2.8828  -2.3603
    -2.2174   1.4241   1.4705   2.6983   3.5742   6.3580   6.4541   6.8984
     7.6114   7.8092   9.0500   9.2121  10.4897  10.6343  11.6466  11.9722
    12.6645  13.1037  13.8179  13.9593  14.0728  15.0647  15.0765  15.1392
    15.8214  16.1932  17.7856  17.7963  17.8086  18.7732  19.1730  19.8456
    20.3857  20.5486  21.0203  21.3720  21.4153  21.9109  22.1031  22.3102
    22.9759  23.0689  23.1496  23.8134  23.8514  24.5737  25.1254  25.3598
    25.5540  26.1986  26.3217  26.7616  26.7864  27.2957  27.9524  28.1488
    28.3107  29.5427  29.5946  29.7368  30.4589  30.7724  31.1004  31.6332
    31.9789  32.0484  32.9806  33.1344  33.4982  34.6733  34.7298  34.9172
    35.3351  35.4995  35.7285  35.7769  36.0579  36.0859  36.5589  36.9207
    36.9711  37.2962  37.7802  37.7966  38.2491  38.8722  38.9967  39.4097
    39.8788  40.2854  40.5132  40.5399

          k = 0.3619-0.2089 0.0000 (  7972 PWs)   bands (ev):

   -13.9902 -13.4266  -6.8001  -5.7963  -5.2255  -4.0961  -2.9198  -2.3016
    -2.2047   1.4306   1.5373   2.7646   3.6100   6.3586   6.4884   6.8127
     7.6757   7.9550   9.1160   9.3016  10.4460  10.5986  11.4683  12.0485
    12.7152  13.0663  13.7798  13.9027  13.9997  14.8911  15.2335  15.3092
    15.9073  16.0638  17.5749  17.7921  17.8851  18.6338  19.1417  19.7199
    20.1833  20.5806  20.9677  21.2803  21.3214  21.8169  21.9156  22.2689
    22.8800  23.0637  23.1018  23.7769  23.9512  24.5720  25.0424  25.2644
    25.7289  26.1548  26.2563  26.7932  26.8266  27.0463  27.6819  28.0421
    28.0960  29.6552  29.7223  29.8081  30.4381  30.5664  31.0492  31.6947
    31.9104  32.1658  33.0337  33.0937  33.6628  34.7390  34.9458  35.1697
    35.3573  35.4697  35.9978  36.0450  36.0925  36.4978  36.5928  37.0208
    37.2468  37.6222  37.9360  38.1748  38.5252  38.8516  39.2021  39.5283
    39.8738  40.4502  40.5677  40.6238

          k = 0.3758-0.2170 0.0000 (  7976 PWs)   bands (ev):

   -13.9094 -13.3821  -6.8759  -5.8890  -5.2453  -4.1397  -2.9528  -2.2480
    -2.1800   1.4419   1.6070   2.8232   3.6415   6.2679   6.5167   6.8058
     7.7573   8.1137   9.1867   9.3748  10.3848  10.5846  11.2940  12.1376
    12.7073  12.8939  13.6506  13.7766  14.1831  14.8180  15.2307  15.5376
    15.9979  16.0661  17.3840  17.7881  17.8801  18.5934  19.1129  19.6111
    19.9833  20.6067  20.9176  21.1814  21.2380  21.7065  21.7406  22.2288
    22.7969  23.0431  23.0593  23.6883  24.0996  24.5653  24.9155  25.1620
    25.8727  26.0881  26.1171  26.7907  26.8832  26.9935  27.4277  27.9435
    27.9749  29.7085  29.7745  29.9186  30.4361  30.4506  31.0069  31.7837
    31.8010  32.2457  32.9893  33.2346  33.7976  34.6483  35.1171  35.3118
    35.3610  35.5334  36.0907  36.1903  36.2813  36.7901  36.9597  37.1936
    37.6342  37.9008  38.0998  38.5580  38.8729  38.8873  39.0920  39.6559
    39.6983  40.4891  40.7748  40.8098

          k = 0.3897-0.2250 0.0000 (  7972 PWs)   bands (ev):

   -13.8332 -13.3405  -6.9494  -5.9746  -5.2673  -4.1790  -2.9820  -2.1998
    -2.1459   1.4569   1.6784   2.8739   3.6688   6.1160   6.5435   6.8557
     7.8481   8.2819   9.2496   9.4291  10.3296  10.5951  11.1277  12.2015
    12.6360  12.6931  13.4850  13.7002  14.3654  14.8433  15.1503  15.7563
    16.0821  16.1763  17.2402  17.7748  17.7986  18.6477  19.0947  19.5201
    19.7877  20.6173  20.8698  21.0631  21.1652  21.5957  21.5984  22.1771
    22.7265  23.0210  23.0231  23.5884  24.1797  24.6074  24.7773  25.0511
    25.9128  25.9855  26.0843  26.5427  26.9248  27.1822  27.1945  27.8969
    27.9923  29.6921  29.8248  29.8868  30.4638  30.5222  30.9738  31.6674
    31.8927  32.2841  32.9946  33.3862  33.9044  34.4767  35.1303  35.3091
    35.3285  35.7572  36.1547  36.2864  36.5714  37.1561  37.4299  37.4339
    38.0409  38.0690  38.2883  38.8785  38.9383  39.0580  39.1953  39.3929
    39.7043  40.7101  40.9248  40.9890

          k = 0.4036-0.2330 0.0000 (  7976 PWs)   bands (ev):

   -13.7628 -13.3023  -7.0189  -6.0524  -5.2905  -4.2139  -3.0073  -2.1574
    -2.1055   1.4745   1.7502   2.9164   3.6922   5.9435   6.5717   6.9283
     7.9405   8.4552   9.2904   9.4658  10.3065  10.6290  10.9728  12.1238
    12.5176  12.6191  13.2788  13.6533  14.5435  14.9019  15.0575  15.9604
    16.1606  16.3271  17.1566  17.6914  17.7534  18.7477  19.0946  19.4474
    19.5998  20.6060  20.8244  20.9218  21.1026  21.4876  21.5006  22.1120
    22.6688  22.9863  23.0051  23.4784  24.1586  24.6424  24.7196  24.9298
    25.7624  26.0545  26.0956  26.3147  26.8861  26.9867  27.2836  27.9670
    28.1555  29.6249  29.6730  29.9689  30.5365  30.6781  30.9492  31.5276
    32.0132  32.3084  33.0118  33.5312  33.9877  34.2514  35.0828  35.2123
    35.2578  36.0473  36.2756  36.4451  36.8464  37.5636  37.7070  37.9165
    38.1439  38.4235  38.5071  38.6484  38.9352  39.3018  39.3685  39.6586
    39.6821  40.9416  41.0390  41.0881

          k = 0.4175-0.2411 0.0000 (  7970 PWs)   bands (ev):

   -13.6991 -13.2680  -7.0828  -6.1217  -5.3138  -4.2443  -3.0289  -2.1207
    -2.0620   1.4936   1.8206   2.9511   3.7120   5.7705   6.6025   7.0089
     8.0276   8.6249   9.3039   9.4901  10.3350  10.6808  10.8322  11.8949
    12.3774  12.6669  13.0851  13.6086  14.7135  14.9256  14.9902  16.1451
    16.2478  16.4743  17.1333  17.5982  17.7257  18.8564  19.1196  19.3927
    19.4255  20.5636  20.7766  20.7820  21.0501  21.4049  21.4162  22.0371
    22.6238  22.9551  22.9811  23.3619  24.0988  24.5186  24.7974  24.8363
    25.6458  26.0258  26.1160  26.2196  26.8080  26.8161  27.2883  28.1076
    28.4325  29.4126  29.6526  30.0021  30.6568  30.8280  30.9321  31.4023
    32.1367  32.3517  32.9991  33.6461  34.0053  34.0523  35.0236  35.0908
    35.1731  36.3563  36.4193  36.6619  37.0669  37.9494  37.9892  38.2248
    38.3864  38.4026  38.5546  38.7839  38.8020  39.6201  39.6833  39.7536
    40.0466  41.0700  41.1154  41.1194

          k = 0.4315-0.2491 0.0000 (  7974 PWs)   bands (ev):

   -13.6431 -13.2380  -7.1395  -6.1816  -5.3359  -4.2701  -3.0468  -2.0898
    -2.0185   1.5127   1.8875   2.9785   3.7283   5.6079   6.6353   7.0913
     8.1035   8.7694   9.3133   9.5089  10.4175  10.7085  10.7418  11.6241
    12.2364  12.6083  13.0446  13.5509  14.8713  14.8806  14.9586  16.3066
    16.3577  16.5923  17.1534  17.5414  17.6937  18.9501  19.1750  19.2760
    19.3549  20.4713  20.6635  20.7432  21.0075  21.3302  21.3461  21.9582
    22.5909  22.9272  22.9403  23.2450  24.0565  24.4098  24.6567  24.9053
    25.5596  25.9527  25.9964  26.3612  26.6616  26.7713  27.2529  28.2737
    28.6921  29.2664  29.6323  29.9832  30.7991  30.9212  30.9458  31.3203
    32.2557  32.4294  32.9357  33.6244  33.8522  34.1025  34.9650  34.9797
    35.0969  36.5676  36.6726  36.9089  37.1921  38.0869  38.1284  38.3374
    38.3620  38.3907  38.8799  39.0781  39.0818  39.8432  39.8538  40.1648
    40.3207  41.1070  41.1496  41.1894

          k = 0.4454-0.2571 0.0000 (  7974 PWs)   bands (ev):

   -13.5958 -13.2129  -7.1879  -6.2315  -5.3556  -4.2914  -3.0614  -2.0646
    -1.9782   1.5306   1.9486   2.9995   3.7414   5.4630   6.6683   7.1711
     8.1642   8.8466   9.3754   9.5279  10.5401  10.6040  10.8023  11.3509
    12.1089  12.4015  13.1732  13.4806  14.7699  14.9573  15.0118  16.4415
    16.4861  16.6673  17.1942  17.5298  17.6602  18.9899  19.1870  19.2633
    19.3317  20.3413  20.5845  20.7093  20.9741  21.2532  21.2901  21.8823
    22.5694  22.8792  22.9031  23.1351  24.0601  24.3181  24.5153  24.9085
    25.4925  25.8258  25.9656  26.5168  26.5486  26.7786  27.2104  28.4431
    28.7059  29.3771  29.6139  29.9153  30.9149  30.9158  31.0293  31.3215
    32.3634  32.5195  32.8408  33.3968  33.8690  34.1412  34.8876  34.9120
    35.0441  36.6993  36.9906  37.1538  37.2267  37.8696  37.9279  38.5334
    38.5412  38.6494  39.2967  39.3655  39.4105  39.9567  40.1273  40.4130
    40.5679  41.0962  41.2593  41.3285

          k = 0.4593-0.2652 0.0000 (  7954 PWs)   bands (ev):

   -13.5580 -13.1929  -7.2268  -6.2709  -5.3720  -4.3079  -3.0725  -2.0452
    -1.9438   1.5461   2.0008   3.0147   3.7513   5.3424   6.6987   7.2436
     8.2082   8.8436   9.5205   9.5489  10.5205  10.6715  10.8538  11.1031
    12.0051  12.1619  13.3509  13.4076  14.6139  14.9734  15.1298  16.5476
    16.6145  16.7022  17.2368  17.5540  17.6282  18.9393  19.1957  19.3200
    19.3814  20.2147  20.5072  20.6812  20.9495  21.1744  21.2472  21.8163
    22.5576  22.8081  22.8833  23.0395  24.1149  24.2447  24.3846  24.8517
    25.4360  25.7331  25.9348  26.4679  26.6769  26.8313  27.1752  28.5373
    28.6070  29.5984  29.6601  29.8052  30.9119  30.9794  31.0893  31.4166
    32.4539  32.4988  32.8359  33.1555  33.8783  34.1705  34.8107  34.8674
    35.0205  36.7753  37.2123  37.3030  37.3427  37.6698  37.8149  38.6488
    38.7419  38.9572  39.4520  39.6773  39.6790  40.1789  40.3647  40.4193
    40.9136  41.1639  41.4251  41.4733

          k = 0.4732-0.2732 0.0000 (  7952 PWs)   bands (ev):

   -13.5304 -13.1784  -7.2553  -6.2994  -5.3843  -4.3198  -3.0804  -2.0314
    -1.9175   1.5579   2.0412   3.0250   3.7583   5.2515   6.7234   7.3031
     8.2366   8.8050   9.5700   9.7177  10.4598  10.6721  10.8906  11.0127
    11.9240  11.9306  13.3442  13.5422  14.4338  14.9942  15.2194  16.6237
    16.7127  16.7231  17.2701  17.5915  17.6015  18.8722  19.2308  19.3157
    19.5160  20.1169  20.4159  20.6602  20.9327  21.1039  21.2165  21.7663
    22.5529  22.7439  22.8686  22.9653  24.1912  24.2112  24.2780  24.7503
    25.3919  25.6705  25.9077  26.4156  26.8228  26.9012  27.1565  28.3518
    28.7600  29.5867  29.6702  29.9333  30.9108  31.0176  31.1409  31.5462
    32.3412  32.5224  32.9482  32.9498  33.8614  34.1911  34.7448  34.8336
    35.0201  36.7645  37.1840  37.4013  37.5950  37.5982  37.8179  38.7496
    38.9380  39.2628  39.3261  39.7100  39.8462  40.5764  40.6040  40.6048
    41.1102  41.4311  41.5523  41.5553

          k = 0.4871-0.2812 0.0000 (  7950 PWs)   bands (ev):

   -13.5137 -13.1697  -7.2727  -6.3167  -5.3919  -4.3269  -3.0851  -2.0231
    -1.9010   1.5654   2.0668   3.0309   3.7625   5.1949   6.7397   7.3427
     8.2518   8.7694   9.5860   9.9346  10.4228  10.4712  10.9113  11.1400
    11.7086  11.8872  13.3012  13.7276  14.2527  15.0104  15.2757  16.6694
    16.7136  16.7959  17.2899  17.5837  17.6214  18.8281  19.2552  19.3150
    19.6362  20.0641  20.3182  20.6472  20.9231  21.0555  21.1977  21.7355
    22.5521  22.7005  22.8594  22.9180  24.1585  24.2079  24.3352  24.6215
    25.3645  25.6345  25.8890  26.3868  26.9228  26.9575  27.1618  28.2069
    28.8880  29.5429  29.5795  30.1268  30.9105  31.0459  31.1902  31.6505
    32.1831  32.5652  32.8071  33.0527  33.8370  34.2034  34.6951  34.8124
    35.0288  36.7110  37.1611  37.3768  37.6079  37.8305  37.8743  38.8678
    39.1300  39.1491  39.5059  39.5564  39.7936  40.9207  40.9439  41.0563
    41.1217  41.5924  41.6390  41.7677

          k = 0.5010-0.2893 0.0000 (  7952 PWs)   bands (ev):

   -13.5081 -13.1667  -7.2785  -6.3224  -5.3944  -4.3293  -3.0866  -2.0204
    -1.8954   1.5680   2.0755   3.0328   3.7639   5.1757   6.7453   7.3568
     8.2565   8.7555   9.5920  10.0902  10.3118  10.4104  10.9177  11.2371
    11.5922  11.8731  13.2861  13.8352  14.1462  15.0164  15.2949  16.6846
    16.7131  16.8216  17.2963  17.5774  17.6324  18.8133  19.2634  19.3151
    19.6876  20.0546  20.2662  20.6427  20.9200  21.0385  21.1914  21.7252
    22.5523  22.6854  22.8563  22.9017  24.1476  24.1834  24.4528  24.5018
    25.3553  25.6228  25.8823  26.3777  26.9548  26.9787  27.1732  28.1498
    28.9455  29.4837  29.5771  30.1970  30.9105  31.0571  31.2150  31.6907
    32.1149  32.5797  32.7548  33.0937  33.8260  34.2075  34.6757  34.8052
    35.0334  36.6847  37.1525  37.3609  37.6210  37.8981  37.9302  38.9321
    39.0648  39.2791  39.4069  39.6040  39.7333  41.0923  41.1668  41.2253
    41.3027  41.5200  41.6186  41.7534

          k = 0.4931-0.3030 0.0000 (  7938 PWs)   bands (ev):

   -13.5067 -13.1657  -7.2748  -6.3243  -5.3930  -4.3320  -3.0854  -2.0807
    -1.8491   1.5685   2.0779   3.0413   3.7449   5.1794   6.7714   7.3698
     8.2577   8.7603   9.5949  10.0924  10.2868  10.4173  10.9207  11.2425
    11.6037  11.8757  13.2874  13.8357  14.1540  14.9983  15.2876  16.5663
    16.6993  16.9361  17.3120  17.4905  17.6795  18.8346  19.1099  19.3078
    19.8321  20.0649  20.2849  20.4505  20.5521  21.3901  21.4372  21.7314
    22.2260  22.5548  23.0158  23.1646  24.0982  24.2003  24.4602  24.5397
    25.2087  25.8155  25.8943  26.2009  26.9782  27.0109  27.3070  28.1475
    28.8668  29.4042  29.7243  30.1570  30.8592  31.0600  31.2239  31.7297
    32.1687  32.3641  32.8886  33.1107  33.8763  34.1922  34.5513  34.7185
    35.3176  36.5795  37.1833  37.3143  37.6960  37.7297  38.1037  38.7015
    39.1582  39.2655  39.3860  39.7162  39.7908  40.7738  40.9018  41.1604
    41.3165  41.5753  41.6074  41.7782

          k = 0.4851-0.3168 0.0000 (  7944 PWs)   bands (ev):

   -13.5027 -13.1626  -7.2636  -6.3299  -5.3887  -4.3400  -3.0819  -2.1909
    -1.7804   1.5698   2.0852   3.0663   3.6901   5.1904   6.8473   7.4086
     8.2611   8.7741   9.6032  10.0948  10.2248  10.4332  10.9296  11.2577
    11.6362  11.8833  13.2913  13.8364  14.1773  14.9419  15.2706  16.4018
    16.6486  17.0835  17.3606  17.3635  17.7163  18.7694  18.8790  19.4271
    19.9426  20.0378  20.1262  20.1461  20.5053  21.6827  21.7670  21.8063
    21.9403  22.2490  23.3808  23.4006  23.9114  24.3538  24.4439  24.6251
    25.0465  25.8563  25.9617  26.1107  26.9843  27.0486  27.6216  28.1450
    28.6767  29.3559  29.9329  30.0250  30.7821  31.0670  31.2282  31.8047
    32.0845  32.2698  32.9920  33.1867  33.8977  34.1516  34.3644  34.8316
    35.6927  36.3787  37.1433  37.1952  37.6308  37.8789  38.1725  38.5443
    38.9172  39.3597  39.4151  39.8490  39.9967  40.3885  40.5178  40.7705
    41.1824  41.3886  41.5370  41.6408

          k = 0.4772-0.3306 0.0000 (  7948 PWs)   bands (ev):

   -13.4962 -13.1574  -7.2450  -6.3393  -5.3818  -4.3525  -3.0768  -2.3205
    -1.7184   1.5706   2.0980   3.1072   3.6056   5.2085   6.9674   7.4723
     8.2666   8.7952   9.6172  10.0632  10.1735  10.4556  10.9446  11.2806
    11.6849  11.8960  13.2975  13.8362  14.2152  14.8457  15.2528  16.2402
    16.5401  17.2010  17.2448  17.4580  17.7364  18.4107  18.9094  19.5278
    19.5903  19.9503  20.0142  20.1712  20.7180  21.4723  21.6751  21.8113
    22.2595  22.3779  23.5317  23.6372  23.8092  24.4100  24.5640  24.7143
    24.9653  25.5687  26.0169  26.3724  27.0356  27.0788  27.9254  28.1883
    28.4480  29.3349  29.8048  30.1375  30.7570  31.0747  31.2167  31.6248
    32.1228  32.3271  33.0169  33.3532  33.6994  34.0996  34.4817  34.9834
    36.0528  36.1882  36.8834  37.1568  37.5794  38.0484  38.0601  38.6258
    38.6877  39.3057  39.4755  39.8846  40.0256  40.0757  40.3480  40.4246
    40.8600  41.0832  41.4444  41.4717

          k = 0.4692-0.3443 0.0000 (  7956 PWs)   bands (ev):

   -13.4871 -13.1504  -7.2191  -6.3526  -5.3722  -4.3680  -3.0709  -2.4648
    -1.6654   1.5692   2.1169   3.1621   3.5000   5.2331   7.1241   7.5592
     8.2742   8.8200   9.6365   9.9623  10.1816  10.4851  10.9655  11.3096
    11.7443  11.9135  13.3053  13.8331  14.2663  14.7151  15.2379  16.0878
    16.3659  17.1646  17.2794  17.5713  17.7465  18.0772  18.8650  19.1604
    19.4558  20.0077  20.0685  20.2436  20.8785  21.1923  21.3861  21.8316
    22.5796  22.8466  23.3777  23.6447  24.1292  24.3874  24.6934  24.7965
    24.9815  25.4147  26.1183  26.4937  27.1139  27.2166  28.0051  28.2233
    28.4387  29.3208  29.5411  30.3033  30.7886  31.0651  31.1936  31.3768
    32.3270  32.3276  32.9430  33.5269  33.5415  34.0922  34.6814  35.1367
    36.0572  36.2744  36.7023  37.0710  37.4581  37.9956  38.1053  38.5504
    38.7436  39.1548  39.5251  39.6825  39.7033  39.9363  40.0612  40.4966
    40.6129  40.8515  41.2945  41.3360

          k = 0.4613-0.3581 0.0000 (  7960 PWs)   bands (ev):

   -13.4756 -13.1414  -7.1859  -6.3699  -5.3604  -4.3853  -3.0651  -2.6218
    -1.6204   1.5638   2.1427   3.2228   3.3877   5.2638   7.3100   7.6668
     8.2835   8.8408   9.6612   9.8433  10.2139  10.5221  10.9924  11.3443
    11.8100  11.9357  13.3133  13.8253  14.3284  14.5599  15.2251  15.9482
    16.1430  17.1099  17.2835  17.5863  17.7477  17.9202  18.6852  18.7358
    19.4257  19.9689  20.3309  20.3310  20.6814  21.0534  21.2691  21.8872
    22.8957  23.0711  23.3247  23.7298  24.2946  24.4938  24.6150  24.8468
    25.1340  25.5342  26.2613  26.4673  27.1549  27.5146  27.9776  28.0333
    28.7238  29.3033  29.3075  30.3637  30.8656  30.9837  31.1655  31.3317
    32.3055  32.4128  32.8784  33.5064  33.5627  34.2744  34.8567  35.2488
    36.0211  36.0675  36.8944  36.9364  37.2679  37.9948  38.0692  38.4541
    38.7550  38.9556  39.3925  39.4281  39.5345  39.6952  40.0356  40.2257
    40.4344  40.8472  41.0529  41.2311

          k = 0.4534-0.3719 0.0000 (  7970 PWs)   bands (ev):

   -13.4620 -13.1308  -7.1456  -6.3911  -5.3466  -4.4027  -3.0606  -2.7896
    -1.5819   1.5525   2.1761   3.2092   3.3542   5.3003   7.5186   7.7921
     8.2943   8.8434   9.6910   9.7400  10.2583  10.5669  11.0255  11.3845
    11.8792  11.9622  13.3193  13.8111  14.3908  14.3989  15.2122  15.8240
    15.8937  17.0611  17.0667  17.5741  17.7339  17.9957  18.3387  18.4372
    19.4698  19.8776  20.3509  20.4784  20.6075  20.7574  21.4433  21.9639
    22.7694  23.1350  23.7368  23.7674  24.3486  24.5609  24.6770  24.8659
    25.4220  25.7584  26.3766  26.4599  27.2005  27.7036  27.9293  28.0300
    28.7587  29.2734  29.3136  30.2814  30.9186  30.9794  31.1453  31.4669
    32.1979  32.2872  33.0384  33.4231  33.6090  34.6087  34.9825  35.2968
    35.7229  36.0867  36.7619  36.9414  37.2946  37.8519  38.1791  38.2497
    38.5267  38.8059  39.1614  39.2562  39.2995  39.7053  39.7305  40.2426
    40.2819  40.6503  40.8183  40.9559

          k = 0.4454-0.3856 0.0000 (  7968 PWs)   bands (ev):

   -13.4463 -13.1187  -7.0982  -6.4162  -5.3313  -4.4186  -3.0584  -2.9663
    -1.5479   1.5339   2.2171   3.0890   3.4353   5.3423   7.7442   7.9307
     8.3066   8.8075   9.6810   9.7258  10.3129  10.6196  11.0646  11.4301
    11.9502  11.9928  13.3191  13.7891  14.2184  14.4756  15.1962  15.6344
    15.7167  16.7229  17.0005  17.6364  17.6841  17.8429  18.2180  18.2324
    19.5046  19.6933  20.1480  20.4685  20.5813  20.9394  21.5946  22.0656
    22.4659  23.2153  23.6653  24.1228  24.4863  24.7178  24.8406  24.8589
    25.7732  25.9501  26.2967  26.7170  27.2486  27.5897  27.8803  28.3532
    28.5601  29.2273  29.5361  30.1612  30.8831  31.0634  31.2078  31.6283
    31.9528  32.2872  33.2179  33.2243  33.8265  34.9437  35.0569  35.3328
    35.3588  36.2038  36.5798  36.7060  37.5586  37.7032  37.9799  38.0684
    38.3893  38.6109  38.8441  39.1548  39.2275  39.3610  39.6943  40.1415
    40.1695  40.3174  40.7324  40.9001

          k = 0.4375-0.3994 0.0000 (  7964 PWs)   bands (ev):

   -13.4288 -13.1052  -7.0441  -6.4449  -5.3149  -4.4318  -3.1500  -3.0592
    -1.5168   1.5071   2.2653   2.9572   3.5383   5.3895   7.9819   8.0763
     8.3205   8.7211   9.6855   9.7655  10.3777  10.6803  11.1097  11.4807
    12.0223  12.0270  13.3049  13.7584  14.0557  14.5565  15.1639  15.3862
    15.6260  16.3579  16.9071  17.4408  17.5752  17.7338  18.0950  18.3673
    19.4241  19.4420  19.9976  20.3420  20.7166  21.2195  21.7006  22.1915
    22.2004  23.0519  23.6903  24.2971  24.7164  24.8180  25.0213  25.0786
    26.0320  26.0761  26.3903  26.9884  27.3002  27.4290  27.8603  28.3564
    28.6753  29.2017  29.7560  30.1016  30.8328  31.0640  31.4016  31.4565
    32.0846  32.3167  33.0117  33.3483  34.1333  34.9869  35.0422  35.1012
    35.5602  36.2697  36.4372  36.4754  37.4948  37.5547  37.7597  37.9901
    38.1079  38.5223  38.6693  38.9936  39.1120  39.1610  39.5832  39.8909
    39.9271  40.1598  40.6943  41.1403

          k = 0.4295-0.4132 0.0000 (  7958 PWs)   bands (ev):

   -13.4098 -13.0906  -6.9834  -6.4769  -5.2981  -4.4413  -3.3384  -3.0638
    -1.4869   1.4719   2.3200   2.8274   3.6509   5.4419   8.2141   8.2220
     8.3423   8.6009   9.7504   9.8098  10.4533  10.7490  11.1607  11.5358
    12.0638  12.0949  13.2638  13.7189  13.9189  14.6399  15.0294  15.2405
    15.5451  16.0005  16.7544  17.0440  17.4481  17.8181  18.0633  18.4978
    19.1395  19.2473  19.8681  20.3668  20.8595  21.4639  21.6610  22.0646
    22.3777  22.7728  23.7795  24.3687  24.7184  24.9030  25.3812  25.4378
    26.1315  26.1334  26.7550  27.1729  27.2572  27.3727  27.9106  28.2286
    28.8038  29.3383  29.9373  30.1378  30.7359  31.0593  31.1775  31.6077
    32.3853  32.3955  32.8228  33.4510  34.4554  34.6514  34.9306  35.1243
    35.8814  36.1528  36.2342  36.5172  37.2084  37.2387  37.6193  37.7325
    38.0186  38.4470  38.6153  38.6888  38.9957  39.1675  39.4160  39.6211
    39.6287  40.1578  40.7657  41.2686

          k = 0.4216-0.4269 0.0000 (  7968 PWs)   bands (ev):

   -13.3896 -13.0751  -6.9163  -6.5118  -5.2816  -4.4462  -3.5294  -3.0727
    -1.4568   1.4287   2.3800   2.7036   3.7692   5.4993   8.2685   8.3327
     8.5005   8.5359   9.8588   9.8597  10.5406  10.8257  11.2169  11.5943
    12.1021  12.1679  13.1838  13.6717  13.8223  14.7236  14.7884  15.2075
    15.4324  15.6991  16.5350  16.6500  17.3592  17.8940  18.0785  18.5382
    18.9432  18.9795  19.7362  20.4818  20.9893  21.4483  21.6460  22.1429
    22.4619  22.6265  23.8808  24.3109  24.7050  25.0025  25.7301  25.7790
    26.1285  26.3357  27.0490  27.2149  27.2223  27.4695  27.9462  28.3203
    28.7720  29.5795  30.0889  30.2771  30.5675  30.9735  31.0603  31.7272
    32.5197  32.7061  32.7463  33.5385  34.2912  34.7373  34.7691  35.2100
    35.8614  35.9481  36.3235  36.5880  36.8218  37.0808  37.3467  37.5033
    37.7447  38.4051  38.4618  38.7052  38.7743  39.0598  39.2383  39.4056
    39.5855  40.1355  40.9110  41.1377

          k = 0.4136-0.4407 0.0000 (  7966 PWs)   bands (ev):

   -13.3686 -13.0591  -6.8430  -6.5487  -5.2664  -4.4462  -3.7205  -3.0860
    -1.4253   1.3783   2.4441   2.5881   3.8902   5.5619   8.1425   8.3510
     8.6345   8.7554   9.9123   9.9981  10.6413  10.9105  11.2774  11.6546
    12.1396  12.2411  13.0683  13.6194  13.7617  14.5416  14.7991  15.1850
    15.1951  15.5650  16.2644  16.2723  17.3101  17.9308  18.1169  18.3936
    18.6914  18.9591  19.5992  20.6323  20.9933  21.3216  21.7146  22.2509
    22.2879  22.8881  23.9865  24.1218  24.7784  25.0750  25.8588  26.0105
    26.2493  26.6869  26.9097  27.2004  27.5873  27.6338  27.9264  28.6099
    28.7383  29.7490  30.2264  30.2281  30.6587  30.8457  31.0673  31.7070
    32.5410  32.9740  33.0017  33.5950  34.0439  34.5020  34.8810  35.3858
    35.6464  35.8309  36.2260  36.4341  36.7001  36.9622  37.2085  37.3940
    37.4068  38.1378  38.2810  38.5289  38.7779  39.0159  39.0765  39.2559
    39.7253  40.0625  40.8404  40.8894

          k = 0.4057-0.4545 0.0000 (  7976 PWs)   bands (ev):

   -13.3471 -13.0429  -6.7639  -6.5869  -5.2539  -4.4413  -3.9090  -3.1037
    -1.3916   1.3217   2.4826   2.5108   4.0109   5.6294   7.9560   8.3654
[...]
    28.6122  28.7522  29.3171  29.3749  30.1252  30.3692  30.6886  31.1159
    31.5709  31.6917  31.7259  32.7793  32.8180  33.2331  33.3950  33.6081
    34.0662  34.4718  34.4838  34.5475  34.9779  35.2519  35.7662  35.8199
    35.9476  36.1497  36.3618  36.5313  36.8705  37.0569  37.3923  37.4647
    38.2937  38.4102  38.4106  38.9642

          k = 0.1273-0.2203 0.0000 (  7949 PWs)   bands (ev):

   -14.8798 -13.9344  -6.4136  -4.8658  -4.4767  -3.8713  -3.1394  -2.0708
    -1.7116   1.0907   1.6479   1.6742   3.1812   5.4941   5.6468   6.6279
     7.8224   8.2975   8.6068   9.0808   9.3521  10.4214  11.1661  11.5010
    12.0327  12.3547  12.6811  13.8433  14.3220  15.8676  16.0354  16.8194
    18.0046  18.3997  18.4391  18.5828  18.7087  19.5317  19.7226  20.2079
    20.5163  20.9168  21.3894  21.7039  22.0603  22.2705  22.5775  23.2973
    23.3647  23.5656  24.4134  24.8630  25.5630  25.9136  26.0257  26.4155
    26.6741  27.0374  27.3029  27.4132  27.7190  27.8401  28.2138  28.2757
    28.5151  29.0256  29.3396  29.4336  30.2237  30.5590  30.6978  31.1367
    31.6661  31.6767  31.8306  32.7939  32.8784  33.0924  33.4004  33.6845
    33.7168  34.0704  34.3099  34.6335  34.6795  35.0534  35.3144  35.5240
    35.5759  35.8112  36.2065  36.4320  36.8442  36.9293  37.0646  37.1515
    38.0535  38.1820  38.5258  38.7561

          k = 0.1193-0.2066 0.0000 (  7945 PWs)   bands (ev):

   -14.9583 -13.9807  -6.4572  -4.7916  -4.3885  -3.7336  -3.1828  -2.0669
    -1.6459   1.1514   1.6578   1.6764   3.0773   5.3842   5.5361   6.5152
     7.7309   8.0619   8.6359   9.1870   9.2868  10.3758  11.1609  11.4121
    11.9860  12.3063  12.7879  13.9193  14.2753  15.8794  15.9678  16.7211
    17.7964  18.6254  18.7513  18.9299  19.0372  19.8533  19.9599  20.0680
    20.7982  21.2243  21.2628  21.7828  21.9249  22.4604  22.8297  23.3138
    23.4987  23.6430  24.6632  24.8069  25.7939  25.8941  26.1366  26.3120
    26.5701  27.0413  27.4927  27.5243  27.6791  27.7749  27.9814  28.1911
    28.4517  29.1170  29.5249  29.5783  30.2262  30.6733  30.6832  31.1385
    31.7036  31.8086  31.9405  32.5239  32.9752  33.0081  33.1914  33.6708
    33.7631  33.7807  33.9698  34.5239  34.6209  34.7211  34.9219  35.1419
    35.2408  35.4224  36.2339  36.4240  36.6276  36.6767  36.9000  36.9868
    37.7932  37.9354  38.6299  38.7248

          k = 0.1114-0.1928 0.0000 (  7943 PWs)   bands (ev):

   -15.0332 -14.0250  -6.5067  -4.7083  -4.2996  -3.5963  -3.2331  -2.0690
    -1.5816   1.2183   1.6489   1.7162   2.9713   5.2796   5.4309   6.4083
     7.6412   7.8120   8.6612   9.2410   9.2912  10.3216  11.1277  11.3250
    11.9629  12.2731  12.8187  14.0884  14.2453  15.8928  15.8957  16.6116
    17.5935  18.8605  19.0500  19.2857  19.3580  19.6989  20.1576  20.4105
    21.1317  21.1391  21.4653  21.8647  21.8783  22.6220  23.0533  23.1331
    23.6965  23.9805  24.7191  24.9039  25.8541  25.9404  26.2446  26.3364
    26.5043  26.9919  27.5206  27.5779  27.6972  27.7629  27.8784  28.1097
    28.4664  29.1054  29.7351  29.8339  30.2001  30.6033  30.6983  31.1231
    31.7022  31.8269  32.0887  32.3213  32.7320  32.9055  33.1316  33.4379
    33.5563  33.8673  33.9256  34.1545  34.3708  34.6238  34.6630  34.8124
    35.0124  35.0372  36.1683  36.2840  36.4105  36.5617  36.7757  36.8728
    37.5500  37.8018  38.4751  38.6536

          k = 0.1034-0.1790 0.0000 (  7943 PWs)   bands (ev):

   -15.1043 -14.0671  -6.5598  -4.6182  -4.2090  -3.4622  -3.2872  -2.0772
    -1.5212   1.2917   1.6479   1.7652   2.8646   5.1805   5.3316   6.3074
     7.5545   7.5602   8.6717   9.2184   9.3764  10.2729  11.0619  11.2432
    11.9606  12.2616  12.8018  14.2370  14.3151  15.8211  15.9067  16.4990
    17.4005  18.9756  19.3168  19.4739  19.6436  19.7824  20.4101  20.7248
    21.1233  21.4090  21.5678  21.9500  22.0457  22.7680  22.7921  23.4503
    23.9493  24.3202  24.6306  25.1086  25.8051  26.0058  26.2425  26.3463
    26.7209  26.9392  27.4399  27.4977  27.5268  27.8377  28.0252  28.0335
    28.6198  29.1109  29.8861  30.0366  30.2435  30.5175  30.6299  31.0856
    31.5378  31.6238  32.1998  32.3526  32.4497  32.7326  32.8215  33.4157
    33.4610  33.6141  33.8855  33.9287  34.1616  34.3391  34.5969  34.6577
    34.8497  34.8524  35.7931  36.1586  36.2791  36.3975  36.7111  36.8417
    37.4033  37.7648  38.2945  38.3289

          k = 0.0955-0.1652 0.0000 (  7937 PWs)   bands (ev):

   -15.1711 -14.1067  -6.6146  -4.5237  -4.1164  -3.3430  -3.3334  -2.0914
    -1.4666   1.3720   1.6550   1.8210   2.7586   5.0871   5.2386   6.2121
     7.3117   7.4718   8.6647   9.2210   9.4166  10.2554  10.9670  11.1699
    11.9739  12.2631  12.7707  14.2537  14.5665  15.7462  15.9207  16.3886
    17.2191  18.7739  19.5196  19.6703  19.9928  20.1192  20.5636  20.9879
    21.3255  21.3741  21.8844  22.0526  22.2128  22.6525  22.9111  23.7438
    24.2399  24.5796  24.6472  25.2525  25.7629  26.0260  26.2800  26.3308
    26.8970  27.0129  27.2546  27.4304  27.4663  27.8311  27.9600  28.1886
    28.8880  29.1566  29.9903  30.0054  30.2431  30.4394  30.6920  30.9940
    31.2762  31.4212  32.0709  32.1033  32.3043  32.5279  32.8904  32.9709
    33.2824  33.4902  33.6554  33.8953  34.0493  34.3058  34.3109  34.6129
    34.8730  34.9014  35.4233  35.8939  36.0507  36.1505  36.8088  36.8324
    37.4017  37.6913  38.0123  38.2058

          k = 0.0875-0.1515 0.0000 (  7951 PWs)   bands (ev):

   -15.2336 -14.1438  -6.6695  -4.4270  -4.0216  -3.3984  -3.2116  -2.1116
    -1.4189   1.4593   1.6701   1.8808   2.6546   4.9994   5.1521   6.1222
     7.0703   7.3939   8.6422   9.2471   9.3901  10.2910  10.8514  11.1098
    11.9971  12.2610  12.7491  14.2966  14.8225  15.6727  15.9353  16.2837
    17.0506  18.4540  19.6180  19.9836  20.3039  20.4660  20.7126  21.2521
    21.2863  21.6557  22.0181  22.1865  22.2940  22.8678  23.0639  23.9339
    24.5316  24.6683  24.9292  25.3319  25.7660  26.0111  26.2246  26.5055
    26.8575  26.9606  27.2664  27.4034  27.5513  27.7998  27.8890  28.3286
    29.2054  29.2422  29.8553  29.9981  30.1534  30.1710  30.8315  30.9704
    31.1365  31.1504  31.7389  31.8711  32.1144  32.2969  32.6588  32.8340
    32.9767  33.3068  33.5737  33.7647  34.0552  34.2534  34.3565  34.6032
    34.8731  34.9584  35.1919  35.5817  35.7415  35.9483  36.8524  36.8672
    37.4908  37.5914  37.7551  38.1726

          k = 0.0796-0.1377 0.0000 (  7953 PWs)   bands (ev):

   -15.2913 -14.1782  -6.7231  -4.3302  -3.9248  -3.4522  -3.0982  -2.1377
    -1.3785   1.5530   1.6926   1.9422   2.5541   4.9175   5.0724   6.0375
     6.8393   7.3213   8.6091   9.2921   9.3014  10.3719  10.7239  11.0712
    12.0246  12.2408  12.7493  14.3653  15.0719  15.6023  15.9514  16.1865
    16.8959  18.1111  19.6089  20.3288  20.5395  20.7822  20.9766  21.2092
    21.5211  21.7830  22.0119  22.3661  22.6737  23.2080  23.2360  23.9622
    24.8030  24.9650  25.1090  25.3583  25.8880  25.9768  26.1786  26.7230
    26.7299  26.8694  27.2360  27.3405  27.7761  27.8236  27.8773  28.4442
    29.3203  29.4894  29.6778  29.7104  30.0543  30.0918  30.6549  30.6596
    31.0318  31.2967  31.4148  31.7747  31.7925  32.1191  32.3487  32.3817
    32.9396  32.9834  33.6918  33.7978  33.8837  34.2664  34.4406  34.6055
    34.8131  34.8274  35.2526  35.2627  35.5987  35.7444  36.8338  36.8420
    37.5542  37.5772  37.6626  37.9897

          k = 0.0716-0.1239 0.0000 (  7937 PWs)   bands (ev):

   -15.3442 -14.2097  -6.7743  -4.2352  -3.8265  -3.5032  -2.9944  -2.1698
    -1.3452   1.6518   1.7220   2.0030   2.4583   4.8414   4.9996   5.9570
     6.6223   7.2545   8.5704   9.1738   9.3510  10.4645  10.5919  11.0694
    12.0522  12.1993  12.7705  14.4573  15.3073  15.5374  15.9699  16.0982
    16.7564  17.7650  19.5366  20.6752  20.7155  20.9523  21.1599  21.3202
    21.6696  21.7829  22.3532  22.6110  23.0738  23.4263  23.5704  23.9190
    25.1018  25.1814  25.3230  25.3437  25.9467  26.1378  26.1511  26.5360
    26.8386  26.9526  27.1994  27.2805  27.7496  27.8040  28.1903  28.5646
    29.1444  29.2470  29.7021  29.7566  29.9448  30.0638  30.2344  30.5511
    30.8391  30.9480  31.2916  31.7154  31.7897  31.8869  31.8999  32.2883
    32.6003  32.9219  33.5500  33.8295  33.9995  34.1535  34.3052  34.5338
    34.6842  34.9795  35.0208  35.2487  35.5706  35.7202  36.7434  36.7827
    37.5055  37.5645  37.7645  37.7778

          k = 0.0636-0.1102 0.0000 (  7947 PWs)   bands (ev):

   -15.3920 -14.2382  -6.8221  -4.1439  -3.7273  -3.5504  -2.9010  -2.2075
    -1.3185   1.7539   1.7570   2.0613   2.3687   4.7711   4.9341   5.8796
     6.4232   7.1940   8.5298   9.0276   9.4197  10.4614  10.5315  11.1245
    12.0772  12.1421  12.8031  14.5678  15.4806  15.5232  15.9919  16.0195
    16.6336  17.4237  19.4410  20.8389  20.8529  20.9121  21.2180  21.6844
    21.8688  22.0329  22.6640  22.9244  23.4832  23.5916  23.9261  23.9337
    25.2070  25.3144  25.3606  25.6933  25.9432  26.1188  26.3768  26.4887
    26.8044  27.1046  27.1750  27.2335  27.6940  27.8955  28.3546  28.6802
    28.7655  29.0550  29.4142  29.7121  29.8462  30.1331  30.2029  30.3987
    30.4969  30.8166  30.8698  31.4301  31.4770  31.7110  32.0227  32.4148
    32.4326  32.7979  33.3373  33.7363  33.8305  34.0279  34.3352  34.5432
    34.5767  34.8714  34.9257  35.4715  35.4849  35.8627  36.6424  36.7118
    37.3282  37.4609  37.7497  37.8728

          k = 0.0557-0.0964 0.0000 (  7945 PWs)   bands (ev):

   -15.4345 -14.2636  -6.8658  -4.0581  -3.6280  -3.5934  -2.8186  -2.2506
    -1.2977   1.7961   1.8567   2.1156   2.2865   4.7068   4.8759   5.8034
     6.2466   7.1399   8.4899   8.8769   9.4944  10.3370  10.5571  11.2412
    12.0768  12.0982  12.8374  14.6885  15.4367  15.7140  15.9506  16.0181
    16.5299  17.0930  19.3431  20.5892  20.8950  20.9582  21.5526  22.0259
    22.2146  22.2817  22.9757  23.2297  23.6817  23.8986  24.1047  24.2782
    25.2208  25.3040  25.4960  25.9037  26.0478  26.1824  26.3318  26.7677
    26.8488  27.1126  27.1652  27.2331  27.6316  28.0722  28.2445  28.3339
    28.8216  28.9840  29.0196  29.4679  29.6984  30.0247  30.3171  30.3223
    30.3756  30.4588  30.6845  31.1602  31.2312  31.4289  32.1272  32.5053
    32.5487  32.6849  33.0934  33.4159  33.6964  33.9186  34.3271  34.4769
    34.5330  34.8363  34.9714  35.4770  35.6488  35.9930  36.4935  36.6493
    37.1484  37.3829  37.6527  37.8876

          k = 0.0477-0.0826 0.0000 (  7949 PWs)   bands (ev):

   -15.4717 -14.2858  -6.9048  -3.9794  -3.6314  -3.5298  -2.7474  -2.2985
    -1.2818   1.8372   1.9573   2.1647   2.2127   4.6485   4.8252   5.7257
     6.0977   7.0927   8.4525   8.7308   9.5718  10.2223  10.5535  11.3993
    12.0090  12.1150  12.8673  14.8063  15.4134  15.8699  15.8914  16.0523
    16.4487  16.7788  19.2528  20.3043  20.8484  21.0374  21.9498  22.2854
    22.5629  22.5988  23.3091  23.3766  23.9082  24.3139  24.3861  24.5669
    25.2155  25.3811  25.5228  25.8261  26.0549  26.4879  26.5064  26.7563
    27.0373  27.1779  27.1828  27.2258  27.5011  27.9170  28.1888  28.2458
    28.5171  28.7285  29.0143  29.2282  29.5094  29.8413  30.1327  30.1329
    30.2038  30.5441  30.6026  30.8867  31.0683  31.4630  32.1060  32.3025
    32.6408  32.6995  33.0036  33.0875  33.6776  33.7464  34.3282  34.3400
    34.4812  34.9104  35.0550  35.5688  35.6126  36.1103  36.3087  36.5778
    37.0665  37.2955  37.5912  37.8165

          k = 0.0398-0.0689 0.0000 (  7963 PWs)   bands (ev):

   -15.5033 -14.3048  -6.9386  -3.9096  -3.6642  -3.4344  -2.6877  -2.3502
    -1.2700   1.8782   2.0522   2.1485   2.2076   4.5966   4.7820   5.6450
     5.9808   7.0524   8.4187   8.5963   9.6485  10.1204  10.5369  11.5748
    11.9426  12.1277  12.8899  14.9018  15.4233  15.8419  15.9654  16.1126
    16.3943  16.4877  19.1744  20.0266  20.8037  21.0959  22.3647  22.4632
    22.8197  22.9956  23.4521  23.6799  24.2807  24.6927  24.6965  24.7687
    25.2217  25.5099  25.5883  25.7153  26.0053  26.5680  26.8282  26.8691
    26.8752  27.1564  27.2441  27.2493  27.3994  27.9444  27.9844  28.0785
    28.1487  28.8487  28.8769  28.9435  29.2226  29.6560  29.7100  29.9357
    30.2806  30.5841  30.5843  30.8606  30.8768  31.7568  31.8306  32.2015
    32.3902  32.5583  32.9349  33.2898  33.3602  33.9035  34.1989  34.3168
    34.4629  35.0168  35.0966  35.4295  35.6539  36.0925  36.1944  36.4887
    37.0455  37.2648  37.6405  37.7059

          k = 0.0318-0.0551 0.0000 (  7945 PWs)   bands (ev):

   -15.5294 -14.3204  -6.9668  -3.8501  -3.6914  -3.3438  -2.6392  -2.4041
    -1.2616   1.9164   2.0947   2.1377   2.2435   4.5517   4.7465   5.5642
     5.8956   7.0192   8.3896   8.4787   9.7204  10.0337  10.5171  11.7497
    11.8813  12.1370  12.9051  14.9571  15.4753  15.8017  15.9931  16.2009
    16.2282  16.3686  19.1099  19.7721  20.7657  21.1382  22.5992  22.7903
    22.9255  23.3930  23.6839  24.0608  24.6914  24.8291  24.9864  24.9943
    25.3653  25.4932  25.6147  25.9021  25.9719  26.5252  26.5402  26.8860
    26.9607  27.1320  27.1494  27.3393  27.4469  27.7701  27.7900  27.8799
    28.2877  28.5357  28.6804  29.0499  29.1422  29.1686  29.5651  29.6165
    30.3537  30.5503  30.5615  30.7808  31.0767  31.5472  31.9327  31.9929
    32.2754  32.3199  32.9931  33.1855  33.4488  33.9745  34.1597  34.2986
    34.4549  35.0883  35.1079  35.2589  35.6084  35.9519  36.1671  36.4376
    37.0339  37.3099  37.6043  37.7522

          k = 0.0239-0.0413 0.0000 (  7941 PWs)   bands (ev):

   -15.5497 -14.3325  -6.9890  -3.8023  -3.7128  -3.2616  -2.6018  -2.4572
    -1.2558   1.9495   2.0521   2.2098   2.2720   4.5147   4.7187   5.4908
     5.8372   6.9933   8.3660   8.3825   9.7833   9.9643  10.4989  11.8283
    11.9092  12.1435  12.9141  14.9740  15.5571  15.7706  15.9901  16.0105
    16.2818  16.3661  19.0600  19.5532  20.7357  21.1677  22.7080  22.9215
    23.2232  23.7767  24.0377  24.4479  24.8883  25.0283  25.1022  25.1952
    25.4873  25.6001  25.7044  25.9622  26.1302  26.2614  26.4885  26.6817
    26.8225  27.0735  27.1013  27.2391  27.4401  27.6060  27.7589  27.8311
    28.3143  28.4384  28.5792  28.7669  28.9790  29.1531  29.4570  29.5515
    30.1908  30.5336  30.5353  30.7441  31.1896  31.5307  31.5928  31.8418
    32.3140  32.3885  32.8069  33.3765  33.5602  33.8431  34.1537  34.2742
    34.4364  35.1019  35.1207  35.2767  35.4282  35.7742  36.2186  36.4316
    36.9866  37.4002  37.5476  37.7862

          k = 0.0159-0.0275 0.0000 (  7959 PWs)   bands (ev):

   -15.5643 -14.3413  -7.0051  -3.7673  -3.7281  -3.1929  -2.5754  -2.5049
    -1.2520   1.9751   2.0213   2.2647   2.2926   4.4868   4.6989   5.4327
     5.7994   6.9748   8.3112   8.3486   9.8326   9.9136  10.4848  11.7869
    12.0388  12.1476  12.9186  14.9693  15.6402  15.7483  15.8464  15.9783
    16.3410  16.3756  19.0245  19.3830  20.7141  21.1868  22.7910  22.8921
    23.6602  24.1157  24.4289  24.8178  24.9584  25.0038  25.2243  25.3749
    25.5898  25.6210  25.7222  25.9936  26.2199  26.3131  26.4139  26.6524
    26.6739  26.7887  27.0719  27.1113  27.4224  27.5373  27.5910  27.6290
    28.1743  28.4337  28.5572  28.7079  28.9197  29.1401  29.5104  29.7235
    30.0214  30.2609  30.4709  30.7589  31.1368  31.2102  31.7642  31.8963
    32.1684  32.3219  33.0525  33.5380  33.5848  33.7051  33.9917  34.2119
    34.4065  35.0847  35.2244  35.2856  35.3249  35.6278  36.3321  36.4140
    36.9470  37.4966  37.5127  37.5457

          k = 0.0080-0.0138 0.0000 (  7945 PWs)   bands (ev):

   -15.5730 -14.3465  -7.0148  -3.7461  -3.7371  -3.1454  -2.5597  -2.5394
    -1.2499   1.9912   2.0026   2.2988   2.3054   4.4694   4.6869   5.3959
     5.7782   6.9636   8.2673   8.3379   9.8640   9.8830  10.4759  11.7605
    12.1240  12.1503  12.9205  14.9591  15.6935  15.7342  15.7521  15.9680
    16.3762  16.3862  19.0035  19.2740  20.7011  21.1975  22.8439  22.8684
    24.0929  24.3481  24.8136  24.8697  25.1040  25.1044  25.1996  25.3160
    25.3572  25.7769  25.9249  25.9636  26.0265  26.3565  26.5039  26.5940
    26.6501  26.9552  27.0108  27.0575  27.3202  27.3687  27.3820  27.5373
    27.7514  28.3376  28.7238  28.7836  28.8927  29.4743  29.5510  29.8598
    29.9042  29.9415  30.2914  30.8251  30.9489  31.0386  31.9022  32.0014
    32.0303  32.3537  33.4037  33.4956  33.5492  33.6414  33.9104  34.0458
    34.3905  35.0637  35.0914  35.3447  35.4526  35.5425  36.3830  36.5104
    36.9416  37.1772  37.5644  37.5736

          k = 0.0000 0.0000 0.0000 (  7927 PWs)   bands (ev):

   -15.5759 -14.3483  -7.0180  -3.7415  -3.7377  -3.1282  -2.5552  -2.5517
    -1.2493   1.9961   1.9970   2.3081   2.3121   4.4634   4.6829   5.3833
     5.7713   6.9599   8.2525   8.3344   9.8710   9.8766  10.4729  11.7514
    12.1487  12.1562  12.9209  14.9543  15.6906  15.7348  15.7373  15.9641
    16.3872  16.3911  18.9965  19.2364  20.6968  21.2009  22.8577  22.8643
    24.4230  24.4308  24.6237  25.0883  25.1698  25.2213  25.2229  25.2277
    25.2300  25.7693  25.9411  25.9472  25.9592  26.4308  26.4777  26.4851
    26.9278  26.9633  27.0794  27.0869  27.1992  27.2273  27.2343  27.5793
    27.5860  28.1409  28.8076  28.9323  28.9399  29.4353  29.7784  29.7849
    29.9415  29.9642  29.9724  30.8698  30.8759  30.9977  31.7824  32.0884
    32.0958  32.3906  33.4431  33.4479  33.6744  33.6830  33.8294  33.9077
    34.3885  35.0501  35.0544  35.3473  35.5134  35.5192  36.3678  36.6813
    36.9472  36.9474  37.5855  37.5918

     Writing output data file ./out/1x1_MoS2.save/

     init_run     :      0.13s CPU      0.14s WALL (       1 calls)
     electrons    :    244.95s CPU    247.13s WALL (       1 calls)

     Called by init_run:
     wfcinit      :      0.00s CPU      0.00s WALL (       1 calls)
     wfcinit:atom :      0.02s CPU      0.03s WALL (     100 calls)
     wfcinit:wfcr :      7.03s CPU      7.12s WALL (     100 calls)
     potinit      :      0.01s CPU      0.02s WALL (       1 calls)
     hinit0       :      0.07s CPU      0.07s WALL (       1 calls)

     Called by electrons:
     c_bands      :    244.95s CPU    247.11s WALL (       1 calls)
     v_of_rho     :      0.00s CPU      0.00s WALL (       1 calls)
     v_h          :      0.00s CPU      0.00s WALL (       1 calls)
     v_xc         :      0.00s CPU      0.00s WALL (       1 calls)

     Called by c_bands:
     init_us_2    :      0.02s CPU      0.03s WALL (     100 calls)
     cegterg      :    237.43s CPU    239.34s WALL (     100 calls)

     Called by sum_band:

     Called by *egterg:
     h_psi        :     42.94s CPU     43.68s WALL (    1729 calls)
     g_psi        :      0.19s CPU      0.19s WALL (    1529 calls)
     cdiaghg      :    132.18s CPU    132.31s WALL (    1629 calls)
     cegterg:over :     31.54s CPU     32.46s WALL (    1529 calls)
     cegterg:upda :     19.13s CPU     19.19s WALL (    1529 calls)
     cegterg:last :     11.34s CPU     11.35s WALL (     302 calls)

     Called by h_psi:
     h_psi:calbec :      2.65s CPU      2.69s WALL (    1729 calls)
     vloc_psi     :     37.95s CPU     38.59s WALL (    1729 calls)
     add_vuspsi   :      2.02s CPU      2.05s WALL (    1729 calls)

     General routines
     calbec       :      2.64s CPU      2.69s WALL (    1729 calls)
     fft          :      0.01s CPU      0.01s WALL (       4 calls)
     ffts         :      0.00s CPU      0.00s WALL (       1 calls)
     fftw         :     36.26s CPU     36.87s WALL (  206976 calls)
     interpolate  :      0.00s CPU      0.00s WALL (       1 calls)
     davcio       :      0.10s CPU      0.16s WALL (     200 calls)

     Parallel routines
     fft_scatt_xy :      2.32s CPU      2.36s WALL (  206981 calls)
     fft_scatt_yz :     16.68s CPU     16.97s WALL (  206981 calls)

     PWSCF        :   4m10.16s CPU   4m13.85s WALL


   This run was terminated on:  19:37: 4  24May2022            

=------------------------------------------------------------------------------=
   JOB DONE.
=------------------------------------------------------------------------------=
