
     Program PWSCF v.6.5Max starts on 14Apr2022 at  2:48:51 

     This program is part of the open-source Quantum ESPRESSO suite
     for quantum simulation of materials; please cite
         "P. Giannozzi et al., J. Phys.:Condens. Matter 21 395502 (2009);
         "P. Giannozzi et al., J. Phys.:Condens. Matter 29 465901 (2017);
          URL http://www.quantum-espresso.org", 
     in publications or presentations arising from this work. More details at
     http://www.quantum-espresso.org/quote

     Parallel version (MPI), running on    16 processors

     MPI processes distributed on     1 nodes
     R & G space division:  proc/nbgrp/npool/nimage =      16
     Waiting for input...
     Reading input from standard input

     Current dimensions of program PWSCF are:
     Max number of different atomic species (ntypx) = 10
     Max number of k-points (npk) =  40000
     Max angular momentum in pseudopotentials (lmaxx) =  3
               file Mo.pw-mt_fhi.UPF: wavefunction(s)  4f renormalized
               file S.pw-mt_fhi.UPF: wavefunction(s)  4f renormalized

     -------------------------------------------------
     Parameters for Dispersion (Grimme-D2) Correction:
     -------------------------------------------------
       atom      VdW radius       C_6     

        Mo         3.097        855.833
        S          3.180        193.230

     Subspace diagonalization in iterative solution of the eigenvalue problem:
     a serial algorithm will be used

     Message from routine setup:
     no reason to have ecutrho>4*ecutwfc

     Parallelization info
     --------------------
     sticks:   dense  smooth     PW     G-vecs:    dense   smooth      PW
     Min          87      34     11                15531     3912     715
     Max          88      35     12                15558     3943     729
     Sum        1393     559    187               248587    62947   11607



     bravais-lattice index     =            0
     lattice parameter (alat)  =       5.8578  a.u.
     unit-cell volume          =    1001.5510 (a.u.)^3
     number of atoms/cell      =            3
     number of atomic types    =            2
     number of electrons       =        18.00
     number of Kohn-Sham states=           50
     kinetic-energy cutoff     =      60.0000  Ry
     charge density cutoff     =     600.0000  Ry
     convergence threshold     =      1.0E-08
     mixing beta               =       0.7000
     number of iterations used =            8  plain     mixing
     Exchange-correlation= SLA-PW
                           (   1   4   0   0   0   0   0)
     nstep                     =          400


     celldm(1)=   5.857840  celldm(2)=   0.000000  celldm(3)=   0.000000
     celldm(4)=   0.000000  celldm(5)=   0.000000  celldm(6)=   0.000000

     crystal axes: (cart. coord. in units of alat)
               a(1) = (   0.992174   0.000587   0.000000 )  
               a(2) = (  -0.495579   0.859541   0.000000 )  
               a(3) = (   0.000000   0.000000   5.840610 )  

     reciprocal axes: (cart. coord. in units 2 pi/alat)
               b(1) = (  1.007545  0.580912 -0.000000 )  
               b(2) = ( -0.000688  1.163015  0.000000 )  
               b(3) = (  0.000000 -0.000000  0.171215 )  


     PseudoPot. # 1 for Mo read from file:
     ./Mo.pw-mt_fhi.UPF
     MD5 check sum: 39557091c5c29ab518dcc42d2770f0a9
     Pseudo is Norm-conserving, Zval =  6.0
     Generated using FHI98PP, converted with fhi2upf.x v.5.0.1
     Using radial grid of  541 points,  3 beta functions with: 
                l(1) =   0
                l(2) =   2
                l(3) =   3

     PseudoPot. # 2 for S  read from file:
     ./S.pw-mt_fhi.UPF
     MD5 check sum: 498597b413bac406373b42162ed9f1a5
     Pseudo is Norm-conserving, Zval =  6.0
     Generated using FHI98PP, converted with fhi2upf.x v.5.0.1
     Using radial grid of  501 points,  3 beta functions with: 
                l(1) =   0
                l(2) =   1
                l(3) =   3

     atomic species   valence    mass     pseudopotential
        Mo             6.00    95.95000     Mo( 1.00)
        S              6.00    32.06500     S ( 1.00)

     No symmetry found



   Cartesian axes

     site n.     atom                  positions (alat units)
         1           Mo  tau(   1) = (   0.4948639   0.2761609   3.5999507  )
         2           S   tau(   2) = (  -0.0042242   0.5643096   4.0984532  )
         3           S   tau(   3) = (  -0.0042241   0.5643095   3.1014473  )

     number of k points=    52
                       cart. coord. in units 2pi/alat
        k(    1) = (   0.0000000   0.0000000   0.0000000), wk =   0.0200000
        k(    2) = (  -0.0000688   0.1163015   0.0000000), wk =   0.0400000
        k(    3) = (  -0.0001375   0.2326030   0.0000000), wk =   0.0400000
        k(    4) = (  -0.0002063   0.3489044   0.0000000), wk =   0.0400000
        k(    5) = (  -0.0002750   0.4652059   0.0000000), wk =   0.0400000
        k(    6) = (   0.0003438  -0.5815074   0.0000000), wk =   0.0200000
        k(    7) = (   0.1006857   0.1743927   0.0000000), wk =   0.0400000
        k(    8) = (   0.1006170   0.2906942   0.0000000), wk =   0.0400000
        k(    9) = (   0.1005482   0.4069956   0.0000000), wk =   0.0400000
        k(   10) = (   0.1004795   0.5232971   0.0000000), wk =   0.0400000
        k(   11) = (   0.1010982  -0.5234162   0.0000000), wk =   0.0400000
        k(   12) = (   0.1010295  -0.4071147   0.0000000), wk =   0.0400000
        k(   13) = (   0.1009607  -0.2908132   0.0000000), wk =   0.0400000
        k(   14) = (   0.1008920  -0.1745118   0.0000000), wk =   0.0400000
        k(   15) = (   0.1008232  -0.0582103   0.0000000), wk =   0.0400000
        k(   16) = (   0.2013715   0.3487854   0.0000000), wk =   0.0400000
        k(   17) = (   0.2013027   0.4650868   0.0000000), wk =   0.0400000
        k(   18) = (   0.2012340   0.5813883   0.0000000), wk =   0.0400000
        k(   19) = (   0.2018527  -0.4653250   0.0000000), wk =   0.0400000
        k(   20) = (   0.2017840  -0.3490235   0.0000000), wk =   0.0400000
        k(   21) = (   0.2017152  -0.2327220   0.0000000), wk =   0.0400000
        k(   22) = (   0.2016465  -0.1164206   0.0000000), wk =   0.0400000
        k(   23) = (   0.3020572   0.5231780   0.0000000), wk =   0.0400000
        k(   24) = (   0.3019884   0.6394795   0.0000000), wk =   0.0400000
        k(   25) = (   0.3026072  -0.4072338   0.0000000), wk =   0.0400000
        k(   26) = (   0.3025384  -0.2909323   0.0000000), wk =   0.0400000
        k(   27) = (   0.3024697  -0.1746308   0.0000000), wk =   0.0400000
        k(   28) = (   0.4027429   0.6975707   0.0000000), wk =   0.0400000
        k(   29) = (   0.4033617  -0.3491426   0.0000000), wk =   0.0400000
        k(   30) = (   0.4032929  -0.2328411   0.0000000), wk =   0.0400000
        k(   31) = (  -0.5034286  -0.8719634   0.0000000), wk =   0.0200000
        k(   32) = (  -0.1007545  -0.0580912   0.0000000), wk =   0.0400000
        k(   33) = (  -0.2015090  -0.1161824   0.0000000), wk =   0.0400000
        k(   34) = (  -0.3022634  -0.1742736   0.0000000), wk =   0.0400000
        k(   35) = (  -0.4030179  -0.2323648   0.0000000), wk =   0.0400000
        k(   36) = (   0.5037724   0.2904560   0.0000000), wk =   0.0200000
        k(   37) = (  -0.2014402  -0.2324839   0.0000000), wk =   0.0400000
        k(   38) = (  -0.3021947  -0.2905751   0.0000000), wk =   0.0400000
        k(   39) = (  -0.4029492  -0.3486663   0.0000000), wk =   0.0400000
        k(   40) = (   0.5038412   0.1741545   0.0000000), wk =   0.0400000
        k(   41) = (   0.4030867   0.1160633   0.0000000), wk =   0.0400000
        k(   42) = (   0.3023322   0.0579721   0.0000000), wk =   0.0400000
        k(   43) = (   0.2015777  -0.0001191   0.0000000), wk =   0.0400000
        k(   44) = (  -0.3021259  -0.4068766   0.0000000), wk =   0.0400000
        k(   45) = (  -0.4028804  -0.4649678   0.0000000), wk =   0.0400000
        k(   46) = (   0.5039099   0.0578530   0.0000000), wk =   0.0400000
        k(   47) = (   0.4031554  -0.0002382   0.0000000), wk =   0.0400000
        k(   48) = (   0.3024009  -0.0583294   0.0000000), wk =   0.0400000
        k(   49) = (  -0.4028117  -0.5812692   0.0000000), wk =   0.0400000
        k(   50) = (   0.5039787  -0.0584484   0.0000000), wk =   0.0400000
        k(   51) = (   0.4032242  -0.1165396   0.0000000), wk =   0.0400000
        k(   52) = (   0.5040474  -0.1747499   0.0000000), wk =   0.0400000

     Dense  grid:   248587 G-vectors     FFT dimensions: (  45,  45, 270)

     Smooth grid:    62947 G-vectors     FFT dimensions: (  30,  30, 180)

     Estimated max dynamical RAM per process >      37.85 MB

     Estimated total dynamical RAM >     605.55 MB

     Initial potential from superposition of free atoms

     starting charge   17.99831, renormalised to   18.00000

     negative rho (up, down):  1.565E-03 0.000E+00
     Starting wfcs are   48 randomized atomic wfcs +    2 random wfcs

     total cpu time spent up to now is        6.9 secs

     Self-consistent Calculation

     iteration #  1     ecut=    60.00 Ry     beta= 0.70
     Davidson diagonalization with overlap
     ethr =  1.00E-02,  avg # of iterations =  7.4

     negative rho (up, down):  4.394E-04 0.000E+00

     total cpu time spent up to now is       54.7 secs

     total energy              =     -56.65249231 Ry
     Harris-Foulkes estimate   =     -57.77091723 Ry
     estimated scf accuracy    <       1.35334186 Ry

     iteration #  2     ecut=    60.00 Ry     beta= 0.70
     Davidson diagonalization with overlap
     ethr =  7.52E-03,  avg # of iterations =  3.9

     total cpu time spent up to now is       76.1 secs

     total energy              =     -55.05167021 Ry
     Harris-Foulkes estimate   =     -59.73053086 Ry
     estimated scf accuracy    <      19.20140278 Ry

     iteration #  3     ecut=    60.00 Ry     beta= 0.70
     Davidson diagonalization with overlap
     ethr =  7.52E-03,  avg # of iterations =  3.1

     total cpu time spent up to now is       96.1 secs

     total energy              =     -57.55675825 Ry
     Harris-Foulkes estimate   =     -57.63339667 Ry
     estimated scf accuracy    <       0.18898669 Ry

     iteration #  4     ecut=    60.00 Ry     beta= 0.70
     Davidson diagonalization with overlap
     ethr =  1.05E-03,  avg # of iterations =  3.0

     total cpu time spent up to now is      112.4 secs

     total energy              =     -57.56331839 Ry
     Harris-Foulkes estimate   =     -57.57384138 Ry
     estimated scf accuracy    <       0.03173281 Ry

     iteration #  5     ecut=    60.00 Ry     beta= 0.70
     Davidson diagonalization with overlap
     ethr =  1.76E-04,  avg # of iterations =  4.0

     total cpu time spent up to now is      129.9 secs

     total energy              =     -57.55743065 Ry
     Harris-Foulkes estimate   =     -57.56381239 Ry
     estimated scf accuracy    <       0.01415834 Ry

     iteration #  6     ecut=    60.00 Ry     beta= 0.70
     Davidson diagonalization with overlap
     ethr =  7.87E-05,  avg # of iterations =  3.6

     total cpu time spent up to now is      146.8 secs

     total energy              =     -57.55710426 Ry
     Harris-Foulkes estimate   =     -57.55869906 Ry
     estimated scf accuracy    <       0.00684493 Ry

     iteration #  7     ecut=    60.00 Ry     beta= 0.70
     Davidson diagonalization with overlap
     ethr =  3.80E-05,  avg # of iterations =  2.2

     total cpu time spent up to now is      161.4 secs

     total energy              =     -57.55717310 Ry
     Harris-Foulkes estimate   =     -57.55766917 Ry
     estimated scf accuracy    <       0.00131528 Ry

     iteration #  8     ecut=    60.00 Ry     beta= 0.70
     Davidson diagonalization with overlap
     ethr =  7.31E-06,  avg # of iterations =  3.9

     total cpu time spent up to now is      178.6 secs

     total energy              =     -57.55727637 Ry
     Harris-Foulkes estimate   =     -57.55727149 Ry
     estimated scf accuracy    <       0.00006338 Ry

     iteration #  9     ecut=    60.00 Ry     beta= 0.70
     Davidson diagonalization with overlap
     ethr =  3.52E-07,  avg # of iterations =  3.8

     negative rho (up, down):  2.208E-05 0.000E+00

     total cpu time spent up to now is      197.2 secs

     total energy              =     -57.55728507 Ry
     Harris-Foulkes estimate   =     -57.55728396 Ry
     estimated scf accuracy    <       0.00000033 Ry

     iteration # 10     ecut=    60.00 Ry     beta= 0.70
     Davidson diagonalization with overlap
     ethr =  1.81E-09,  avg # of iterations =  3.3

     total cpu time spent up to now is      213.1 secs

     total energy              =     -57.55728508 Ry
     Harris-Foulkes estimate   =     -57.55728517 Ry
     estimated scf accuracy    <       0.00000002 Ry

     iteration # 11     ecut=    60.00 Ry     beta= 0.70
     Davidson diagonalization with overlap
     ethr =  1.31E-10,  avg # of iterations =  2.3

     total cpu time spent up to now is      225.9 secs

     End of self-consistent calculation

          k = 0.0000 0.0000 0.0000 (  7855 PWs)   bands (ev):

   -15.5883 -14.3554  -7.0205  -3.6779  -3.6726  -3.1198  -2.5302  -2.4151
    -1.2356   2.0532   2.1667   2.3916   2.4600   4.5146   4.7216   5.4935
     5.8185   6.9861   8.3708   8.4001   9.9728   9.9893  10.5067  11.8199
    12.1972  12.3078  13.0585  14.9963  15.7726  15.8671  15.9215  16.0310
    16.5344  16.6038  19.1210  19.4278  20.7373  21.3032  23.1074  23.1214
    24.6488  24.7038  24.8624  25.2956  25.4048  25.4777  25.4831  25.4926
    25.5197  26.1560

          k =-0.0001 0.1163 0.0000 (  7847 PWs)   bands (ev):

   -15.4321 -14.2622  -6.8537  -4.0231  -3.6564  -3.5120  -2.7042  -2.2161
    -1.2856   1.9027   1.9307   2.2398   2.3938   4.7707   4.9328   5.8633
     6.4258   7.1835   8.5412   9.0631   9.5679  10.5114  10.5930  11.2564
    12.1608  12.2709  12.9522  14.6671  15.4826  15.9841  16.0301  16.2665
    16.6499  17.2542  19.5083  20.8345  20.9949  21.0545  21.4034  21.8808
    22.6878  23.2661  23.2667  23.3527  23.3765  24.0881  24.3435  24.4161
    25.1213  25.3095

          k =-0.0001 0.2326 0.0000 (  7841 PWs)   bands (ev):

   -14.9913 -14.0014  -6.4841  -4.7287  -4.4726  -3.2508  -3.0660  -2.2950
    -1.6172   1.2858   1.8292   1.9893   3.0153   5.3661   5.5273   6.4607
     7.6928   7.7670   8.9351   8.9860   9.3601  10.8579  11.4365  11.8222
    11.9572  12.5241  12.8795  13.6600  14.7887  15.4734  16.1200  17.1607
    17.7016  18.0459  18.1851  19.2289  19.7224  20.2635  20.7035  21.5397
    21.6329  21.8291  22.0638  22.0798  22.1675  22.8357  23.2702  23.2887
    23.4559  23.7329

          k =-0.0002 0.3489 0.0000 (  7848 PWs)   bands (ev):

   -14.3599 -13.6369  -6.4892  -5.3260  -5.1167  -3.7804  -2.6975  -2.4998
    -2.1340   1.3456   1.5596   2.5483   3.5355   6.1502   6.2923   7.1976
     7.6454   7.6503   8.9240   9.0689  10.4145  10.9573  11.9588  12.3238
    12.3723  12.8899  13.3714  14.3609  14.5243  15.1307  15.3622  15.5311
    16.3576  17.0366  17.6148  17.8523  18.6418  19.4184  19.7138  20.6157
    20.7664  21.2446  21.4524  21.9170  21.9557  22.0304  22.7712  22.8812
    22.9144  23.5845

          k =-0.0003 0.4652 0.0000 (  7875 PWs)   bands (ev):

   -13.7387 -13.2941  -7.0117  -6.0384  -5.2548  -4.1377  -2.9869  -2.1159
    -2.0346   1.5923   1.8329   3.0221   3.8082   6.1001   6.6164   6.9995
     8.0176   8.4854   9.3573   9.5485  10.3730  10.7022  11.1592  12.2728
    12.6399  12.7073  13.4279  13.7465  14.6630  15.0621  15.1669  16.1144
    16.2584  16.4410  17.2999  17.8277  17.9425  18.8778  19.2341  19.6787
    19.8007  20.7971  21.0573  21.1034  21.3211  21.6838  21.7244  22.2588
    22.8788  23.2088

          k = 0.0003-0.5815 0.0000 (  7872 PWs)   bands (ev):

   -13.4601 -13.1476  -7.2942  -6.3248  -5.3710  -4.2621  -3.0767  -1.9358
    -1.8413   1.6989   2.1935   3.1377   3.8850   5.2918   6.8177   7.4580
     8.3478   8.8156   9.6929  10.1736  10.3778  10.5542  11.0068  11.3177
    11.6608  11.9578  13.3658  13.9478  14.2430  15.0943  15.4692  16.8056
    16.8799  16.9782  17.4500  17.7453  17.8044  18.9247  19.5013  19.5398
    19.8467  20.2004  20.4739  20.8663  21.1259  21.2394  21.4059  21.8176
    22.7493  22.8841

          k = 0.1007 0.1744 0.0000 (  7847 PWs)   bands (ev):

   -15.1333 -14.0861  -6.5757  -4.5208  -4.1818  -3.3101  -3.2383  -2.0251
    -1.4834   1.3945   1.7882   1.8967   2.9118   5.1939   5.3437   6.2995
     7.5579   7.6316   8.7509   9.3090   9.5086  10.3329  11.1285  11.3027
    12.0591  12.3902  12.8708  14.3882  14.5820  15.8440  16.0672  16.6039
    17.4469  19.0799  19.6059  19.6739  19.9827  20.1060  20.6445  20.9986
    21.3232  21.5040  21.8542  22.1771  22.3235  22.9484  23.0512  23.8044
    24.2553  24.6336

          k = 0.1006 0.2907 0.0000 (  7845 PWs)   bands (ev):

   -14.5938 -13.7707  -6.3497  -4.9815  -4.8755  -4.0434  -2.9345  -2.1819
    -1.8951   1.0798   1.7010   2.0028   3.5560   5.9273   6.0854   7.0433
     8.0403   8.2009   8.8180   9.2239   9.8928  10.8094  11.3813  11.8740
    12.1309  12.5043  12.7445  14.2412  14.5232  15.8745  16.2845  16.8180
    16.8519  17.6746  17.8885  18.5865  18.8832  18.9299  19.1242  19.7817
    20.5565  20.8562  21.3218  21.9327  21.9509  22.3660  22.6021  23.0837
    23.4358  23.8129

          k = 0.1005 0.4070 0.0000 (  7864 PWs)   bands (ev):

   -13.9539 -13.4059  -6.6740  -5.7365  -5.0751  -4.3264  -2.9349  -2.6359
    -1.8656   1.2596   1.8834   2.5596   3.8581   6.6736   6.8221   7.1817
     8.0277   8.0670   9.4167   9.4321  10.4145  10.7912  11.0372  12.3606
    12.4745  13.1260  13.5813  14.0452  14.4481  15.0952  15.1467  15.7588
    16.2587  16.5816  17.4596  17.5966  18.1559  18.1925  18.8934  19.0862
    19.7425  20.0959  20.4481  20.8203  21.8972  21.9390  22.5663  22.7495
    23.1377  23.9328

          k = 0.1005 0.5233 0.0000 (  7861 PWs)   bands (ev):

   -13.4787 -13.1445  -7.0800  -6.3157  -5.2761  -4.3616  -2.9904  -2.8048
    -1.5708   1.6288   2.2096   3.0811   3.6680   5.6563   7.4556   7.6995
     8.4572   9.1833   9.4526   9.7245  10.0890  10.9607  11.0135  11.5743
    12.2589  12.5654  13.4607  13.5442  14.5014  14.7590  15.2405  15.7714
    16.0535  16.9641  17.3285  17.4761  17.9995  18.2111  18.3716  18.5673
    19.7341  19.9825  20.4897  20.6014  20.7951  21.0604  22.0127  22.2233
    22.9240  23.5944

          k = 0.1011-0.5234 0.0000 (  7863 PWs)   bands (ev):

   -13.4785 -13.1420  -7.0829  -6.3241  -5.2731  -4.3502  -2.9980  -2.8132
    -1.5662   1.6201   2.2345   3.1542   3.5808   5.6551   7.4686   7.6855
     8.4564   9.2178   9.4382   9.7214  10.0692  10.9807  11.0142  11.5653
    12.2542  12.5538  13.4567  13.5485  14.5135  14.7451  15.2419  15.7631
    16.0471  16.9742  17.3305  17.4767  18.0179  18.2268  18.3766  18.5673
    19.7317  20.0094  20.4881  20.5522  20.8082  21.0608  22.0243  22.2454
    22.9119  23.5853

          k = 0.1010-0.4071 0.0000 (  7858 PWs)   bands (ev):

   -13.9537 -13.4002  -6.6791  -5.7564  -5.0759  -4.3041  -2.9479  -2.6500
    -1.8472   1.2435   1.9189   2.6001   3.7932   6.6744   6.8286   7.1738
     8.0373   8.0681   9.4129   9.4188  10.4617  10.7791  11.0066  12.3598
    12.4762  13.1253  13.5939  14.0384  14.4455  15.0897  15.1508  15.7783
    16.2543  16.5632  17.4758  17.6010  18.1640  18.1967  18.9017  19.0687
    19.7663  20.0950  20.4558  20.8196  21.9167  21.9341  22.5626  22.7615
    23.1304  23.9244

          k = 0.1010-0.2908 0.0000 (  7839 PWs)   bands (ev):

   -14.5938 -13.7649  -6.3507  -4.9974  -4.8804  -4.0433  -2.9345  -2.1918
    -1.8657   1.0534   1.7283   1.9957   3.5555   5.9288   6.0809   7.0447
     8.0441   8.1800   8.8226   9.2169   9.8795  10.7920  11.4293  11.8748
    12.1539  12.5252  12.7298  14.2441  14.5268  15.8658  16.2838  16.8045
    16.8438  17.6815  17.8748  18.5992  18.8934  18.9311  19.1316  19.7949
    20.5535  20.8686  21.3380  21.9271  21.9737  22.3628  22.6076  23.1013
    23.4326  23.8222

          k = 0.1009-0.1745 0.0000 (  7855 PWs)   bands (ev):

   -15.1334 -14.0821  -6.5770  -4.5348  -4.1414  -3.3688  -3.2322  -2.0203
    -1.4610   1.3975   1.7392   1.8853   2.9658   5.1936   5.3414   6.2996
     7.5574   7.6343   8.7315   9.3010   9.5020  10.3426  11.1657  11.3181
    12.0468  12.3725  12.8893  14.3558  14.5881  15.8497  16.0641  16.6107
    17.4469  19.1021  19.6119  19.7163  19.9912  20.1111  20.6595  20.9947
    21.3298  21.5063  21.8725  22.1700  22.3243  22.9259  23.0633  23.8070
    24.2655  24.6544

          k = 0.1008-0.0582 0.0000 (  7847 PWs)   bands (ev):

   -15.4322 -14.2608  -6.8544  -4.0286  -3.6197  -3.5088  -2.7799  -2.1839
    -1.2788   1.8686   1.9467   2.1909   2.4612   4.7704   4.9322   5.8640
     6.4294   7.1833   8.5328   9.0495   9.5674  10.5203  10.6039  11.3228
    12.1578  12.2036  12.9544  14.6182  15.4657  15.9808  16.0296  16.3274
    16.6655  17.2825  19.5196  20.8247  20.9871  21.0297  21.4316  21.9059
    22.7135  23.2459  23.2890  23.3498  23.3594  24.0906  24.3248  24.4061
    25.1119  25.2940

          k = 0.2014 0.3488 0.0000 (  7837 PWs)   bands (ev):

   -14.0361 -13.4464  -6.4716  -5.5147  -4.8616  -4.6163  -3.4948  -2.3241
    -1.8404   1.0576   1.9674   2.1261   4.0362   6.7196   6.9214   7.7752
     7.9925   8.4391   9.2217   9.5894  10.4613  10.8367  10.8972  11.6753
    12.0916  12.9771  13.3014  14.0238  15.0181  15.7167  15.9716  16.0347
    16.3922  16.4285  17.0070  17.1347  17.2822  18.0606  18.3974  19.3054
    19.6506  19.8314  20.5067  21.0499  21.7405  21.8174  22.3428  22.9391
    23.1898  23.8666

          k = 0.2013 0.4651 0.0000 (  7870 PWs)   bands (ev):

   -13.5080 -13.1396  -6.6628  -6.2927  -4.9426  -4.5451  -3.9613  -2.8016
    -1.5626   1.4192   2.3072   2.3753   4.2389   6.4645   7.6782   7.7695
     8.7237   9.0014   9.4494  10.0843  10.6991  11.1507  11.2684  12.3250
    12.4836  13.1970  13.3014  13.7606  13.9365  14.3644  14.4697  14.9390
    15.7023  15.9367  16.3216  16.8053  17.4396  17.5641  18.2585  18.2650
    19.1857  19.4456  20.4962  20.7888  21.2989  21.4072  21.9322  22.3946
    23.0706  23.3377

          k = 0.2012 0.5814 0.0000 (  7889 PWs)   bands (ev):

   -13.2806 -13.0049  -6.7214  -6.6119  -5.2234  -4.4034  -3.9714  -3.0961
    -1.3065   1.4083   2.4877   2.6734   4.2453   5.7688   7.9376   8.4640
     8.9935   9.2936  10.1092  10.3748  10.9345  11.1574  11.4722  11.8538
    12.2809  12.4546  12.9807  13.6792  13.7847  14.3595  14.7370  15.1106
    15.2739  15.6247  15.8071  15.9754  17.3638  17.8564  18.3201  18.4001
    18.4153  19.2666  19.5689  20.8109  20.9956  21.6313  21.6758  22.3782
    22.7834  23.5888

          k = 0.2019-0.4653 0.0000 (  7876 PWs)   bands (ev):

   -13.5081 -13.1306  -6.6709  -6.3171  -4.9347  -4.5277  -3.9692  -2.8077
    -1.5661   1.4218   2.3457   2.4040   4.1762   6.4694   7.6596   7.7590
     8.7221   9.0065   9.4611  10.1069  10.6881  11.1501  11.2742  12.3516
    12.4627  13.1869  13.2918  13.7727  13.9268  14.3576  14.4752  14.9420
    15.6979  15.9395  16.3253  16.8064  17.4445  17.5748  18.2533  18.2740
    19.2033  19.4412  20.5100  20.8030  21.3010  21.3963  21.9388  22.4093
    23.0644  23.3710

          k = 0.2018-0.3490 0.0000 (  7837 PWs)   bands (ev):

   -14.0364 -13.4341  -6.4772  -5.5467  -4.8802  -4.5986  -3.4806  -2.3329
    -1.8276   1.0489   1.9981   2.1410   3.9869   6.7291   6.9129   7.7661
     7.9937   8.4365   9.2384   9.5859  10.4526  10.7969  10.9123  11.7259
    12.0894  12.9925  13.3094  14.0333  15.0161  15.7204  15.9632  16.0392
    16.4068  16.4283  17.0076  17.1454  17.2701  18.0596  18.4022  19.2978
    19.6633  19.8360  20.4915  21.0699  21.7455  21.8358  22.3539  22.9181
    23.1727  23.8973

          k = 0.2017-0.2327 0.0000 (  7845 PWs)   bands (ev):

   -14.5943 -13.7603  -6.3527  -5.0010  -4.8542  -4.0834  -2.9301  -2.1930
    -1.8529   1.0538   1.7130   1.9831   3.5686   5.9278   6.0799   7.0441
     8.0462   8.1967   8.8288   9.2213   9.8819  10.7834  11.4070  11.8711
    12.1554  12.5195  12.7482  14.2322  14.5458  15.8792  16.2957  16.8339
    16.8572  17.6764  17.8997  18.5831  18.9021  18.9293  19.1310  19.7691
    20.5679  20.8527  21.3396  21.9313  21.9443  22.3614  22.5905  23.1047
    23.4611  23.7887

          k = 0.2016-0.1164 0.0000 (  7839 PWs)   bands (ev):

   -14.9917 -13.9957  -6.4875  -4.7363  -4.4336  -3.3147  -3.0657  -2.2956
    -1.5881   1.3018   1.7927   1.9517   3.0628   5.3644   5.5256   6.4595
     7.6929   7.7802   8.9247   8.9973   9.3753  10.8554  11.4434  11.8295
    11.9314  12.4905  12.9022  13.6589  14.7680  15.5026  16.1209  17.1954
    17.7020  18.0695  18.2207  19.2579  19.7536  20.2844  20.6998  21.5313
    21.6057  21.8259  22.0363  22.0815  22.1484  22.8174  23.2489  23.2989
    23.4696  23.7157

          k = 0.3021 0.5232 0.0000 (  7901 PWs)   bands (ev):

   -13.2099 -12.9484  -6.7423  -6.2818  -5.2437  -4.6869  -4.3618  -3.1777
    -1.1611   1.1464   2.1565   2.8949   4.7215   6.3179   6.9527   8.4494
     9.5553  10.1773  10.8205  10.8403  11.4620  11.6362  11.7581  12.0759
    12.5685  12.7149  12.8385  13.0779  13.3765  13.8037  13.9308  14.0740
    14.7038  15.0073  15.8909  16.0481  16.4652  16.7886  17.8552  18.2957
    19.0972  19.2239  19.3366  19.7826  20.5793  21.8979  21.9081  22.9513
    23.0600  23.9716

          k = 0.3020 0.6395 0.0000 (  7903 PWs)   bands (ev):

   -13.2104 -12.9413  -6.7559  -6.2870  -5.2288  -4.7008  -4.3634  -3.1698
    -1.1659   1.1569   2.1620   2.9151   4.6863   6.3186   6.9350   8.4356
     9.5762  10.1986  10.8405  10.8508  11.4592  11.6191  11.7467  12.0826
    12.5765  12.7243  12.8316  13.0748  13.3751  13.7978  13.9190  14.0710
    14.7132  15.0171  15.8941  16.0417  16.4506  16.7891  17.8712  18.2960
    19.1109  19.2149  19.3383  19.7817  20.5874  21.9066  21.9087  22.9450
    23.0344  23.9870

          k = 0.3026-0.4072 0.0000 (  7872 PWs)   bands (ev):

   -13.5093 -13.1227  -6.6656  -6.3235  -4.9496  -4.5462  -3.9605  -2.7908
    -1.5617   1.4248   2.3451   2.3920   4.1607   6.4597   7.6743   7.7612
     8.7269   9.0131   9.4596  10.1018  10.6794  11.1577  11.2830  12.3590
    12.4721  13.2069  13.3094  13.7732  13.9247  14.3695  14.4847  14.9318
    15.6952  15.9227  16.3230  16.8009  17.4463  17.5768  18.2577  18.2645
    19.1877  19.4481  20.5136  20.7994  21.3041  21.3814  21.9320  22.4112
    23.0862  23.3664

          k = 0.3025-0.2909 0.0000 (  7859 PWs)   bands (ev):

   -13.9555 -13.3879  -6.6754  -5.7525  -5.0917  -4.3470  -2.9260  -2.6323
    -1.8438   1.2443   1.9037   2.5602   3.8111   6.6837   6.8262   7.1762
     8.0387   8.0704   9.4163   9.4173  10.4552  10.7803  11.0283  12.3639
    12.4915  13.1372  13.5981  14.0576  14.4617  15.1006  15.1716  15.7596
    16.2694  16.5865  17.4730  17.5852  18.1538  18.1958  18.8794  19.0926
    19.7698  20.0982  20.4419  20.7934  21.9011  21.9221  22.5728  22.7387
    23.1065  23.9157

          k = 0.3025-0.1746 0.0000 (  7868 PWs)   bands (ev):

   -14.3612 -13.6241  -6.4917  -5.3117  -5.1289  -3.8356  -2.6906  -2.5053
    -2.0892   1.3396   1.5402   2.5106   3.5621   6.1477   6.2916   7.2025
     7.6544   7.6678   8.9218   9.0658  10.4292  10.9351  11.9590  12.3290
    12.3718  12.9097  13.3679  14.4080  14.5030  15.1461  15.3766  15.5551
    16.3755  17.0540  17.6253  17.8717  18.6347  19.4502  19.7188  20.5871
    20.7503  21.2381  21.4354  21.8908  21.9555  21.9977  22.7460  22.8690
    22.9113  23.5622

          k = 0.4027 0.6976 0.0000 (  7891 PWs)   bands (ev):

   -13.2826 -12.9896  -6.7144  -6.6333  -5.2344  -4.4275  -3.9754  -3.0657
    -1.3008   1.4180   2.4879   2.6945   4.1856   5.7500   7.9414   8.4734
     9.0147   9.2948  10.1219  10.3690  10.9377  11.1660  11.4792  11.8532
    12.2973  12.4722  12.9837  13.6704  13.8192  14.3578  14.7270  15.1110
    15.2863  15.6300  15.7939  15.9586  17.3630  17.8394  18.3341  18.3857
    18.3976  19.2855  19.6024  20.7764  20.9848  21.6149  21.6836  22.3973
    22.7814  23.6565

          k = 0.4034-0.3491 0.0000 (  7863 PWs)   bands (ev):

   -13.4818 -13.1216  -7.0725  -6.3432  -5.2924  -4.3947  -2.9603  -2.8065
    -1.5565   1.6315   2.2322   3.0997   3.5810   5.6433   7.4648   7.7009
     8.4593   9.2110   9.4584   9.7339  10.0807  10.9795  11.0211  11.5899
    12.2680  12.5700  13.4737  13.5572  14.5174  14.7476  15.2570  15.7980
    16.0394  16.9517  17.3380  17.4656  18.0105  18.2236  18.3508  18.5634
    19.7291  19.9897  20.5231  20.5637  20.8112  21.0634  21.9996  22.2481
    22.8950  23.5822

          k = 0.4033-0.2328 0.0000 (  7876 PWs)   bands (ev):

   -13.7417 -13.2730  -7.0054  -6.0521  -5.2729  -4.1884  -2.9576  -2.0814
    -2.0422   1.5967   1.8222   2.9682   3.8193   6.1103   6.6187   6.9940
     8.0101   8.4871   9.3660   9.5549  10.4102  10.7096  11.1604  12.2766
    12.6511  12.7244  13.4499  13.7542  14.6751  15.0674  15.1857  16.0658
    16.2637  16.4744  17.3178  17.8507  17.9770  18.8867  19.2153  19.6510
    19.7982  20.7946  21.0372  21.1084  21.2878  21.6675  21.7100  22.2611
    22.8413  23.1841

          k =-0.5034-0.8720 0.0000 (  7876 PWs)   bands (ev):

   -13.4642 -13.1224  -7.2828  -6.3500  -5.3908  -4.3115  -3.0375  -1.9403
    -1.8202   1.7133   2.1929   3.0769   3.8900   5.2801   6.8015   7.4588
     8.3670   8.8447   9.6954  10.1799  10.3990  10.5537  11.0211  11.3187
    11.6936  11.9644  13.3817  13.9471  14.2614  15.1003  15.4731  16.8059
    16.8309  16.9766  17.4558  17.8126  17.8217  18.9505  19.5143  19.5168
    19.8353  20.2078  20.5014  20.8418  21.0929  21.2090  21.3831  21.8341
    22.7137  22.8401

          k =-0.1008-0.0581 0.0000 (  7847 PWs)   bands (ev):

   -15.4321 -14.2622  -6.8537  -4.0230  -3.6564  -3.5120  -2.7042  -2.2161
    -1.2856   1.9027   1.9307   2.2398   2.3938   4.7707   4.9328   5.8633
     6.4258   7.1835   8.5412   9.0631   9.5679  10.5114  10.5930  11.2564
    12.1608  12.2709  12.9522  14.6671  15.4826  15.9841  16.0301  16.2665
    16.6499  17.2542  19.5083  20.8345  20.9949  21.0545  21.4034  21.8808
    22.6879  23.2661  23.2667  23.3527  23.3765  24.0881  24.3435  24.4161
    25.1213  25.3095

          k =-0.2015-0.1162 0.0000 (  7841 PWs)   bands (ev):

   -14.9913 -14.0014  -6.4841  -4.7287  -4.4726  -3.2508  -3.0660  -2.2950
    -1.6172   1.2858   1.8292   1.9893   3.0153   5.3661   5.5273   6.4607
     7.6928   7.7670   8.9351   8.9860   9.3601  10.8579  11.4365  11.8221
    11.9572  12.5241  12.8795  13.6600  14.7887  15.4734  16.1200  17.1607
    17.7016  18.0460  18.1852  19.2289  19.7225  20.2635  20.7035  21.5397
    21.6329  21.8291  22.0638  22.0799  22.1674  22.8357  23.2702  23.2887
    23.4559  23.7329

          k =-0.3023-0.1743 0.0000 (  7848 PWs)   bands (ev):

   -14.3599 -13.6369  -6.4892  -5.3260  -5.1167  -3.7804  -2.6975  -2.4999
    -2.1340   1.3456   1.5596   2.5483   3.5355   6.1502   6.2923   7.1976
     7.6454   7.6503   8.9240   9.0689  10.4145  10.9573  11.9588  12.3238
    12.3722  12.8899  13.3713  14.3610  14.5243  15.1307  15.3622  15.5311
    16.3576  17.0366  17.6148  17.8523  18.6418  19.4184  19.7138  20.6157
    20.7664  21.2446  21.4524  21.9170  21.9557  22.0304  22.7712  22.8811
    22.9144  23.5845

          k =-0.4030-0.2324 0.0000 (  7875 PWs)   bands (ev):

   -13.7387 -13.2941  -7.0117  -6.0384  -5.2548  -4.1377  -2.9869  -2.1159
    -2.0346   1.5923   1.8329   3.0221   3.8082   6.1001   6.6164   6.9995
     8.0176   8.4854   9.3573   9.5485  10.3730  10.7022  11.1592  12.2728
    12.6399  12.7073  13.4279  13.7465  14.6630  15.0622  15.1669  16.1144
    16.2584  16.4410  17.2999  17.8277  17.9425  18.8778  19.2341  19.6787
    19.8007  20.7971  21.0573  21.1034  21.3210  21.6838  21.7244  22.2588
    22.8788  23.2088

          k = 0.5038 0.2905 0.0000 (  7872 PWs)   bands (ev):

   -13.4601 -13.1476  -7.2942  -6.3248  -5.3710  -4.2621  -3.0767  -1.9358
    -1.8413   1.6989   2.1935   3.1377   3.8850   5.2918   6.8177   7.4580
     8.3478   8.8156   9.6929  10.1736  10.3778  10.5542  11.0068  11.3177
    11.6608  11.9578  13.3658  13.9478  14.2430  15.0943  15.4692  16.8056
    16.8799  16.9783  17.4500  17.7453  17.8044  18.9247  19.5013  19.5398
    19.8467  20.2004  20.4739  20.8663  21.1259  21.2394  21.4059  21.8176
    22.7493  22.8841

          k =-0.2014-0.2325 0.0000 (  7845 PWs)   bands (ev):

   -14.5938 -13.7707  -6.3497  -4.9815  -4.8755  -4.0434  -2.9345  -2.1819
    -1.8951   1.0798   1.7010   2.0028   3.5560   5.9273   6.0854   7.0433
     8.0403   8.2009   8.8180   9.2239   9.8928  10.8094  11.3814  11.8740
    12.1309  12.5043  12.7445  14.2412  14.5232  15.8745  16.2845  16.8180
    16.8519  17.6746  17.8885  18.5865  18.8832  18.9299  19.1242  19.7817
    20.5565  20.8562  21.3218  21.9327  21.9509  22.3660  22.6021  23.0837
    23.4358  23.8129

          k =-0.3022-0.2906 0.0000 (  7864 PWs)   bands (ev):

   -13.9539 -13.4059  -6.6740  -5.7365  -5.0751  -4.3264  -2.9349  -2.6359
    -1.8656   1.2596   1.8834   2.5597   3.8581   6.6736   6.8221   7.1817
     8.0277   8.0670   9.4167   9.4321  10.4145  10.7912  11.0372  12.3606
    12.4745  13.1260  13.5813  14.0452  14.4481  15.0952  15.1467  15.7588
    16.2587  16.5816  17.4596  17.5966  18.1559  18.1925  18.8934  19.0862
    19.7425  20.0959  20.4481  20.8203  21.8972  21.9390  22.5663  22.7495
    23.1377  23.9328

          k =-0.4029-0.3487 0.0000 (  7861 PWs)   bands (ev):

   -13.4787 -13.1445  -7.0800  -6.3157  -5.2761  -4.3616  -2.9904  -2.8048
    -1.5708   1.6288   2.2096   3.0811   3.6680   5.6563   7.4556   7.6995
     8.4572   9.1833   9.4526   9.7245  10.0890  10.9607  11.0135  11.5743
    12.2589  12.5654  13.4607  13.5442  14.5014  14.7590  15.2405  15.7714
    16.0535  16.9641  17.3285  17.4761  17.9995  18.2111  18.3715  18.5673
    19.7341  19.9825  20.4897  20.6014  20.7951  21.0604  22.0127  22.2233
    22.9240  23.5944

          k = 0.5038 0.1742 0.0000 (  7863 PWs)   bands (ev):

   -13.4785 -13.1420  -7.0829  -6.3241  -5.2731  -4.3502  -2.9980  -2.8132
    -1.5662   1.6201   2.2345   3.1542   3.5808   5.6551   7.4686   7.6855
     8.4564   9.2178   9.4382   9.7214  10.0692  10.9807  11.0142  11.5653
    12.2542  12.5538  13.4567  13.5485  14.5135  14.7451  15.2419  15.7631
    16.0471  16.9742  17.3305  17.4767  18.0179  18.2268  18.3766  18.5673
    19.7317  20.0094  20.4881  20.5522  20.8082  21.0608  22.0243  22.2454
    22.9119  23.5853

          k = 0.4031 0.1161 0.0000 (  7858 PWs)   bands (ev):

   -13.9537 -13.4002  -6.6791  -5.7564  -5.0759  -4.3041  -2.9479  -2.6500
    -1.8472   1.2435   1.9189   2.6001   3.7932   6.6744   6.8286   7.1738
     8.0373   8.0681   9.4129   9.4188  10.4617  10.7791  11.0066  12.3598
    12.4762  13.1253  13.5939  14.0384  14.4455  15.0897  15.1508  15.7783
    16.2543  16.5632  17.4758  17.6010  18.1640  18.1967  18.9017  19.0687
    19.7663  20.0950  20.4558  20.8196  21.9167  21.9341  22.5626  22.7615
    23.1304  23.9244

          k = 0.3023 0.0580 0.0000 (  7839 PWs)   bands (ev):

   -14.5938 -13.7649  -6.3507  -4.9974  -4.8804  -4.0433  -2.9345  -2.1918
    -1.8657   1.0534   1.7283   1.9957   3.5555   5.9288   6.0809   7.0447
     8.0441   8.1800   8.8226   9.2169   9.8795  10.7920  11.4293  11.8748
    12.1539  12.5252  12.7298  14.2441  14.5268  15.8658  16.2838  16.8045
    16.8438  17.6815  17.8748  18.5992  18.8934  18.9311  19.1316  19.7949
    20.5536  20.8686  21.3380  21.9271  21.9737  22.3628  22.6076  23.1013
    23.4326  23.8222

          k = 0.2016-0.0001 0.0000 (  7855 PWs)   bands (ev):

   -15.1334 -14.0821  -6.5770  -4.5348  -4.1414  -3.3688  -3.2322  -2.0203
    -1.4610   1.3975   1.7392   1.8853   2.9658   5.1936   5.3414   6.2996
     7.5574   7.6343   8.7315   9.3010   9.5020  10.3425  11.1657  11.3181
    12.0468  12.3725  12.8893  14.3558  14.5881  15.8497  16.0641  16.6107
    17.4469  19.1021  19.6119  19.7163  19.9912  20.1111  20.6595  20.9947
    21.3298  21.5063  21.8725  22.1700  22.3243  22.9259  23.0633  23.8070
    24.2655  24.6544

          k =-0.3021-0.4069 0.0000 (  7870 PWs)   bands (ev):

   -13.5080 -13.1396  -6.6628  -6.2927  -4.9426  -4.5451  -3.9613  -2.8016
    -1.5626   1.4192   2.3072   2.3753   4.2389   6.4645   7.6782   7.7695
     8.7237   9.0014   9.4494  10.0843  10.6991  11.1507  11.2684  12.3250
    12.4836  13.1970  13.3015  13.7606  13.9365  14.3644  14.4697  14.9390
    15.7023  15.9367  16.3216  16.8053  17.4396  17.5641  18.2585  18.2650
    19.1857  19.4456  20.4962  20.7888  21.2988  21.4072  21.9322  22.3946
    23.0706  23.3377

          k =-0.4029-0.4650 0.0000 (  7889 PWs)   bands (ev):

   -13.2806 -13.0049  -6.7214  -6.6119  -5.2233  -4.4034  -3.9714  -3.0961
    -1.3065   1.4083   2.4877   2.6734   4.2453   5.7688   7.9376   8.4640
     8.9935   9.2936  10.1092  10.3748  10.9345  11.1574  11.4722  11.8538
    12.2809  12.4546  12.9807  13.6792  13.7847  14.3595  14.7370  15.1106
    15.2739  15.6247  15.8071  15.9754  17.3638  17.8564  18.3201  18.4001
    18.4153  19.2666  19.5689  20.8109  20.9956  21.6313  21.6758  22.3782
    22.7834  23.5888

          k = 0.5039 0.0579 0.0000 (  7876 PWs)   bands (ev):

   -13.5080 -13.1306  -6.6709  -6.3171  -4.9347  -4.5277  -3.9692  -2.8077
    -1.5661   1.4218   2.3458   2.4040   4.1762   6.4694   7.6596   7.7590
     8.7221   9.0065   9.4611  10.1069  10.6881  11.1501  11.2742  12.3516
    12.4627  13.1869  13.2918  13.7727  13.9268  14.3576  14.4752  14.9420
    15.6979  15.9395  16.3253  16.8064  17.4445  17.5748  18.2533  18.2740
    19.2033  19.4412  20.5100  20.8030  21.3010  21.3963  21.9388  22.4093
    23.0644  23.3710

          k = 0.4032-0.0002 0.0000 (  7837 PWs)   bands (ev):

   -14.0364 -13.4341  -6.4772  -5.5467  -4.8802  -4.5986  -3.4806  -2.3329
    -1.8276   1.0489   1.9981   2.1410   3.9869   6.7291   6.9129   7.7661
     7.9937   8.4365   9.2384   9.5859  10.4526  10.7969  10.9123  11.7259
    12.0894  12.9925  13.3094  14.0333  15.0161  15.7204  15.9632  16.0392
    16.4068  16.4283  17.0076  17.1454  17.2701  18.0596  18.4022  19.2978
    19.6633  19.8360  20.4915  21.0699  21.7455  21.8358  22.3540  22.9181
    23.1727  23.8973

          k = 0.3024-0.0583 0.0000 (  7845 PWs)   bands (ev):

   -14.5943 -13.7603  -6.3527  -5.0010  -4.8542  -4.0834  -2.9301  -2.1930
    -1.8529   1.0538   1.7130   1.9831   3.5686   5.9278   6.0799   7.0441
     8.0462   8.1967   8.8288   9.2213   9.8819  10.7834  11.4070  11.8711
    12.1554  12.5195  12.7482  14.2322  14.5458  15.8792  16.2957  16.8339
    16.8572  17.6764  17.8997  18.5831  18.9021  18.9294  19.1310  19.7691
    20.5679  20.8527  21.3396  21.9313  21.9443  22.3614  22.5905  23.1047
    23.4611  23.7887

          k =-0.4028-0.5813 0.0000 (  7903 PWs)   bands (ev):

   -13.2104 -12.9413  -6.7559  -6.2870  -5.2288  -4.7008  -4.3634  -3.1698
    -1.1659   1.1569   2.1620   2.9151   4.6863   6.3186   6.9350   8.4356
     9.5762  10.1986  10.8405  10.8508  11.4592  11.6191  11.7467  12.0826
    12.5765  12.7243  12.8316  13.0748  13.3751  13.7978  13.9190  14.0710
    14.7132  15.0171  15.8941  16.0417  16.4506  16.7891  17.8712  18.2960
    19.1109  19.2149  19.3383  19.7817  20.5874  21.9066  21.9086  22.9450
    23.0344  23.9870

          k = 0.5040-0.0584 0.0000 (  7872 PWs)   bands (ev):

   -13.5093 -13.1227  -6.6656  -6.3235  -4.9496  -4.5462  -3.9605  -2.7908
    -1.5617   1.4248   2.3451   2.3920   4.1607   6.4597   7.6743   7.7612
     8.7270   9.0131   9.4597  10.1018  10.6794  11.1577  11.2830  12.3590
    12.4721  13.2069  13.3094  13.7732  13.9247  14.3695  14.4847  14.9318
    15.6952  15.9227  16.3230  16.8009  17.4463  17.5768  18.2577  18.2645
    19.1877  19.4481  20.5136  20.7994  21.3041  21.3815  21.9320  22.4112
    23.0862  23.3664

          k = 0.4032-0.1165 0.0000 (  7859 PWs)   bands (ev):

   -13.9555 -13.3879  -6.6754  -5.7525  -5.0917  -4.3470  -2.9260  -2.6323
    -1.8438   1.2443   1.9037   2.5602   3.8111   6.6837   6.8262   7.1762
     8.0387   8.0704   9.4163   9.4173  10.4552  10.7803  11.0283  12.3639
    12.4914  13.1372  13.5981  14.0576  14.4617  15.1006  15.1716  15.7596
    16.2694  16.5865  17.4730  17.5852  18.1538  18.1958  18.8794  19.0926
    19.7698  20.0982  20.4419  20.7934  21.9011  21.9221  22.5728  22.7387
    23.1065  23.9157

          k = 0.5040-0.1747 0.0000 (  7863 PWs)   bands (ev):

   -13.4818 -13.1216  -7.0725  -6.3432  -5.2924  -4.3947  -2.9603  -2.8065
    -1.5565   1.6315   2.2322   3.0997   3.5810   5.6433   7.4648   7.7009
     8.4593   9.2110   9.4584   9.7339  10.0807  10.9795  11.0211  11.5899
    12.2680  12.5700  13.4737  13.5572  14.5174  14.7476  15.2570  15.7980
    16.0394  16.9517  17.3381  17.4656  18.0105  18.2236  18.3508  18.5634
    19.7291  19.9897  20.5231  20.5637  20.8112  21.0634  21.9996  22.2481
    22.8950  23.5822

     highest occupied, lowest unoccupied level (ev):    -1.1611    1.0489

!    total energy              =     -57.55728509 Ry
     Harris-Foulkes estimate   =     -57.55728508 Ry
     estimated scf accuracy    <          4.3E-10 Ry

     The total energy is the sum of the following terms:

     one-electron contribution =    -415.78057323 Ry
     hartree contribution      =     212.41091464 Ry
     xc contribution           =     -13.25724465 Ry
     ewald contribution        =     159.11275115 Ry
     Dispersion Correction     =      -0.04313299 Ry

     convergence has been achieved in  11 iterations

     Forces acting on atoms (cartesian axes, Ry/au):

     atom    1 type  1   force =    -0.00859854    0.00496387   -0.00000123
     atom    2 type  2   force =     0.00429935   -0.00248199    0.00444487
     atom    3 type  2   force =     0.00429919   -0.00248188   -0.00444364

     Total force =     0.013688     Total SCF correction =     0.000045


     Computing stress (Cartesian axis) and pressure

          total   stress  (Ry/bohr**3)                   (kbar)     P=        5.71
   0.00004574   0.00000297   0.00000000            6.73        0.44        0.00
   0.00000297   0.00004916  -0.00000000            0.44        7.23       -0.00
   0.00000000  -0.00000000   0.00002163            0.00       -0.00        3.18


     BFGS Geometry Optimization

     number of scf cycles    =   1
     number of bfgs steps    =   0

     enthalpy new            =     -57.5572850863 Ry

     new trust radius        =       0.0099284893 bohr
     new conv_thr            =       0.0000000100 Ry

     new unit-cell volume =   1003.92856 a.u.^3 (   148.76686 Ang^3 )
     density =      1.78682 g/cm^3

CELL_PARAMETERS (alat=  5.85783961)
   0.993308085   0.000660832   0.000000000
  -0.496081749   0.860560966   0.000000000
   0.000000000   0.000000000   5.840610472

ATOMIC_POSITIONS (angstrom)
Mo            1.5312589253        0.8598487271       11.1592532130
S            -0.0107019850        1.7501007966       12.7068816785
S            -0.0107017333        1.7501006259        9.6116241085



     Writing output data file ./out/1x1_MoS2.save/
     NEW-OLD atomic charge density approx. for the potential

     negative rho (up, down):  3.060E-04 0.000E+00
     extrapolated charge   18.04262, renormalised to   18.00000

     total cpu time spent up to now is      230.8 secs

     Self-consistent Calculation

     iteration #  1     ecut=    60.00 Ry     beta= 0.70
     Davidson diagonalization with overlap
     ethr =  1.00E-06,  avg # of iterations =  5.4

     negative rho (up, down):  7.172E-05 0.000E+00

     total cpu time spent up to now is      258.9 secs

     total energy              =     -57.55081982 Ry
     Harris-Foulkes estimate   =     -56.59596374 Ry
     estimated scf accuracy    <       0.00628338 Ry

     iteration #  2     ecut=    60.00 Ry     beta= 0.70
     Davidson diagonalization with overlap
     ethr =  3.49E-05,  avg # of iterations =  4.6

     negative rho (up, down):  1.765E-05 0.000E+00

     total cpu time spent up to now is      277.8 secs

     total energy              =     -57.54894311 Ry
     Harris-Foulkes estimate   =     -57.57398790 Ry
     estimated scf accuracy    <       0.10946234 Ry

     iteration #  3     ecut=    60.00 Ry     beta= 0.70
     Davidson diagonalization with overlap
     ethr =  3.49E-05,  avg # of iterations =  3.1

     negative rho (up, down):  4.369E-06 0.000E+00

     total cpu time spent up to now is      291.3 secs

     total energy              =     -57.55771437 Ry
     Harris-Foulkes estimate   =     -57.55821569 Ry
     estimated scf accuracy    <       0.00374117 Ry

     iteration #  4     ecut=    60.00 Ry     beta= 0.70
     Davidson diagonalization with overlap
     ethr =  2.08E-05,  avg # of iterations =  1.0

     negative rho (up, down):  1.190E-06 0.000E+00

     total cpu time spent up to now is      301.0 secs

     total energy              =     -57.55754723 Ry
     Harris-Foulkes estimate   =     -57.55778827 Ry
     estimated scf accuracy    <       0.00168576 Ry

     iteration #  5     ecut=    60.00 Ry     beta= 0.70
     Davidson diagonalization with overlap
     ethr =  9.37E-06,  avg # of iterations =  1.1

     negative rho (up, down):  2.093E-07 0.000E+00

     total cpu time spent up to now is      312.1 secs

     total energy              =     -57.55744424 Ry
     Harris-Foulkes estimate   =     -57.55759059 Ry
     estimated scf accuracy    <       0.00052881 Ry

     iteration #  6     ecut=    60.00 Ry     beta= 0.70
     Davidson diagonalization with overlap
     ethr =  2.94E-06,  avg # of iterations =  3.2

     negative rho (up, down):  3.806E-08 0.000E+00

     total cpu time spent up to now is      325.2 secs

     total energy              =     -57.55749972 Ry
     Harris-Foulkes estimate   =     -57.55750115 Ry
     estimated scf accuracy    <       0.00000655 Ry

     iteration #  7     ecut=    60.00 Ry     beta= 0.70
     Davidson diagonalization with overlap
     ethr =  3.64E-08,  avg # of iterations =  1.0

     total cpu time spent up to now is      335.5 secs

     total energy              =     -57.55750004 Ry
     Harris-Foulkes estimate   =     -57.55750024 Ry
     estimated scf accuracy    <       0.00000073 Ry

     iteration #  8     ecut=    60.00 Ry     beta= 0.70
     Davidson diagonalization with overlap
     ethr =  4.05E-09,  avg # of iterations =  1.0

     total cpu time spent up to now is      346.1 secs

     End of self-consistent calculation

          k = 0.0000 0.0000 0.0000 (  7855 PWs)   bands (ev):

   -15.5759 -14.3520  -7.0113  -3.6794  -3.6671  -3.1261  -2.4971  -2.4575
    -1.2458   2.0752   2.0986   2.3805   2.4112   4.5089   4.7153   5.4855
     5.8280   6.9936   8.3686   8.3780   9.9536   9.9700  10.5149  11.8065
    12.2003  12.2530  13.0239  14.9978  15.7845  15.8341  15.8403  16.0247
    16.5065  16.5364  19.0956  19.3653  20.7430  21.2801  23.0453  23.0656
    24.5993  24.6404  24.8073  25.2573  25.3544  25.4157  25.4295  25.4428
    25.4645  26.1259

          k =-0.0001 0.1162 0.0000 (  7847 PWs)   bands (ev):

   -15.4207 -14.2588  -6.8450  -4.0247  -3.6491  -3.5069  -2.7224  -2.2207
    -1.2947   1.8853   1.8956   2.2017   2.3825   4.7660   4.9256   5.8795
     6.4063   7.1901   8.5437   9.0283   9.5452  10.4963  10.5988  11.2505
    12.1442  12.2353  12.9199  14.6287  15.4707  15.9615  15.9812  16.2431
    16.6252  17.2233  19.4802  20.7826  20.9784  21.0157  21.3595  21.8458
    22.6627  23.2144  23.2247  23.3112  23.3252  24.0446  24.3071  24.3805
    25.0833  25.2783

          k =-0.0002 0.2323 0.0000 (  7841 PWs)   bands (ev):

   -14.9825 -13.9980  -6.4760  -4.7311  -4.4613  -3.2643  -3.0645  -2.3079
    -1.6209   1.2677   1.7979   1.9575   2.9967   5.3587   5.5176   6.4786
     7.6959   7.7469   8.9030   8.9720   9.3594  10.8373  11.4277  11.8030
    11.9144  12.4990  12.8729  13.6258  14.7470  15.4459  16.1173  17.1244
    17.6834  18.0076  18.1553  19.2185  19.6877  20.2380  20.6654  21.5109
    21.5918  21.8112  22.0162  22.0440  22.1229  22.8022  23.2499  23.2661
    23.4283  23.6750

          k =-0.0002 0.3485 0.0000 (  7848 PWs)   bands (ev):

   -14.3551 -13.6332  -6.4785  -5.3184  -5.1238  -3.7891  -2.7076  -2.5022
    -2.1323   1.3242   1.5334   2.5146   3.5090   6.1356   6.2808   7.1997
     7.6367   7.6430   8.9182   9.0447  10.4046  10.9251  11.9239  12.3207
    12.3393  12.8719  13.3504  14.3372  14.4883  15.1099  15.3330  15.5207
    16.3515  17.0255  17.5989  17.8086  18.6209  19.4050  19.6823  20.5684
    20.7269  21.2175  21.4110  21.8935  21.9332  22.0129  22.7308  22.8540
    22.8935  23.5774

          k =-0.0003 0.4646 0.0000 (  7875 PWs)   bands (ev):

   -13.7385 -13.2900  -7.0000  -6.0359  -5.2589  -4.1436  -2.9908  -2.0927
    -2.0656   1.5711   1.8064   2.9875   3.7759   6.0744   6.6052   6.9755
     7.9941   8.4880   9.3481   9.5295  10.3682  10.6886  11.1343  12.2510
    12.6241  12.7018  13.4222  13.7377  14.6376  15.0326  15.1581  16.0700
    16.2442  16.4170  17.2839  17.8178  17.9031  18.8508  19.2072  19.6317
    19.7730  20.7695  21.0173  21.0862  21.3042  21.6714  21.6918  22.2398
    22.8476  23.1560

          k = 0.0004-0.5808 0.0000 (  7872 PWs)   bands (ev):

   -13.4622 -13.1433  -7.2818  -6.3243  -5.3720  -4.2670  -3.0781  -1.9294
    -1.8613   1.6776   2.1667   3.1052   3.8502   5.2640   6.7988   7.4303
     8.3217   8.8030   9.6699  10.1668  10.3835  10.5331  10.9922  11.3160
    11.6621  11.9499  13.3592  13.9303  14.2328  15.0894  15.4341  16.7974
    16.8317  16.9483  17.4269  17.7250  17.7725  18.9140  19.4504  19.4919
    19.8194  20.1804  20.4393  20.8270  21.1097  21.2228  21.3698  21.8142
    22.7182  22.8488

          k = 0.1006 0.1742 0.0000 (  7847 PWs)   bands (ev):

   -15.1239 -14.0820  -6.5680  -4.5280  -4.1608  -3.3380  -3.2318  -2.0356
    -1.4836   1.3726   1.7461   1.8671   2.9067   5.1881   5.3335   6.3185
     7.5621   7.6010   8.7338   9.2922   9.4849  10.3230  11.1269  11.2949
    12.0364  12.3471  12.8657  14.3415  14.5406  15.8441  16.0352  16.5677
    17.4242  19.0441  19.5642  19.6496  19.9441  20.0625  20.6268  20.9806
    21.3075  21.4981  21.8265  22.1414  22.2868  22.8737  23.0038  23.7629
    24.2254  24.8061

          k = 0.1005 0.2903 0.0000 (  7845 PWs)   bands (ev):

   -14.5879 -13.7661  -6.3400  -4.9923  -4.8667  -4.0504  -2.9365  -2.2006
    -1.8846   1.0484   1.6858   1.9783   3.5222   5.9173   6.0710   7.0610
     8.0403   8.1697   8.8141   9.1938   9.8729  10.7867  11.3730  11.8452
    12.1043  12.5022  12.7221  14.2118  14.4903  15.8518  16.2662  16.7907
    16.8276  17.6357  17.8769  18.5573  18.8546  18.9040  19.0970  19.7695
    20.5335  20.8291  21.2992  21.9115  21.9141  22.3379  22.5581  23.0617
    23.3941  23.7714

          k = 0.1004 0.4065 0.0000 (  7864 PWs)   bands (ev):

   -13.9523 -13.4011  -6.6637  -5.7382  -5.0824  -4.3210  -2.9412  -2.6514
    -1.8607   1.2338   1.8669   2.5494   3.7948   6.6563   6.8122   7.1511
     8.0184   8.0789   9.4060   9.4108  10.4052  10.7657  11.0097  12.3282
    12.4639  13.1072  13.5740  14.0330  14.4247  15.0855  15.1094  15.7402
    16.2437  16.5549  17.4496  17.5650  18.1243  18.1757  18.8861  19.0511
    19.7216  20.0732  20.4279  20.7876  21.8663  21.9045  22.5471  22.7236
    23.0868  23.9003

          k = 0.1003 0.5226 0.0000 (  7861 PWs)   bands (ev):

   -13.4805 -13.1403  -7.0687  -6.3160  -5.2771  -4.3615  -2.9966  -2.8131
    -1.5745   1.6048   2.1894   3.0811   3.5961   5.6288   7.4431   7.6708
     8.4298   9.1773   9.4424   9.7024  10.0703  10.9574  11.0014  11.5701
    12.2450  12.5572  13.4516  13.5344  14.4842  14.7293  15.2293  15.7397
    16.0317  16.9344  17.3157  17.4514  17.9759  18.1800  18.3657  18.5417
    19.7148  19.9689  20.4545  20.5536  20.7755  21.0311  21.9617  22.2122
    22.8874  23.5664

          k = 0.1010-0.5228 0.0000 (  7863 PWs)   bands (ev):

   -13.4798 -13.1391  -7.0708  -6.3190  -5.2760  -4.3593  -2.9973  -2.8131
    -1.5764   1.6001   2.2042   3.0977   3.5751   5.6260   7.4463   7.6688
     8.4288   9.1851   9.4404   9.7019  10.0661  10.9641  11.0019  11.5643
    12.2419  12.5509  13.4469  13.5355  14.4880  14.7206  15.2327  15.7298
    16.0227  16.9378  17.3193  17.4545  17.9866  18.1914  18.3692  18.5461
    19.7138  19.9774  20.4632  20.5403  20.7818  21.0330  21.9701  22.2186
    22.8854  23.5629

          k = 0.1009-0.4066 0.0000 (  7858 PWs)   bands (ev):

   -13.9508 -13.3983  -6.6671  -5.7455  -5.0830  -4.3159  -2.9394  -2.6530
    -1.8614   1.2273   1.8859   2.5543   3.7820   6.6566   6.8137   7.1466
     8.0188   8.0815   9.4061   9.4064  10.4222  10.7608  11.0015  12.3255
    12.4590  13.0994  13.5750  14.0251  14.4205  15.0786  15.1189  15.7516
    16.2408  16.5499  17.4571  17.5702  18.1340  18.1786  18.8964  19.0518
    19.7296  20.0749  20.4364  20.7914  21.8784  21.9013  22.5463  22.7272
    23.0806  23.8957

          k = 0.1009-0.2905 0.0000 (  7839 PWs)   bands (ev):

   -14.5865 -13.7632  -6.3403  -4.9974  -4.8704  -4.0501  -2.9343  -2.2021
    -1.8795   1.0405   1.6971   1.9690   3.5272   5.9190   6.0708   7.0626
     8.0403   8.1609   8.8128   9.1900   9.8705  10.7780  11.3792  11.8461
    12.1216  12.5063  12.7209  14.2176  14.4979  15.8454  16.2632  16.7806
    16.8243  17.6411  17.8672  18.5709  18.8594  18.9115  19.1020  19.7865
    20.5302  20.8430  21.3107  21.9080  21.9225  22.3427  22.5563  23.0718
    23.3930  23.7764

          k = 0.1008-0.1743 0.0000 (  7855 PWs)   bands (ev):

   -15.1230 -14.0800  -6.5676  -4.5278  -4.1488  -3.3571  -3.2368  -2.0334
    -1.4761   1.3760   1.7280   1.8611   2.9227   5.1887   5.3339   6.3191
     7.5630   7.6038   8.7261   9.2922   9.4840  10.3251  11.1296  11.3011
    12.0309  12.3451  12.8750  14.3268  14.5510  15.8453  16.0303  16.5652
    17.4270  19.0618  19.5706  19.6680  19.9544  20.0721  20.6388  20.9844
    21.3156  21.5021  21.8384  22.1395  22.2961  22.8700  23.0117  23.7628
    24.2351  24.7882

          k = 0.1007-0.0581 0.0000 (  7847 PWs)   bands (ev):

   -15.4204 -14.2581  -6.8450  -4.0177  -3.6367  -3.5161  -2.7509  -2.2071
    -1.2919   1.8802   1.9056   2.1789   2.3974   4.7663   4.9258   5.8799
     6.4086   7.1905   8.5412   9.0266   9.5540  10.4848  10.6049  11.2764
    12.1457  12.2006  12.9244  14.6153  15.4682  15.9485  15.9911  16.2508
    16.6339  17.2403  19.4856  20.7856  20.9802  21.0127  21.3865  21.8719
    22.6911  23.1897  23.2397  23.2966  23.3196  24.0497  24.2926  24.3569
    25.0638  25.2662

          k = 0.2011 0.3483 0.0000 (  7837 PWs)   bands (ev):

   -14.0340 -13.4414  -6.4616  -5.5214  -4.8753  -4.6045  -3.4925  -2.3430
    -1.8377   1.0354   1.9508   2.1154   3.9737   6.7074   6.9023   7.7478
     8.0003   8.4323   9.2232   9.5675  10.4390  10.7850  10.8912  11.6702
    12.0559  12.9688  13.2980  13.9863  14.9829  15.6969  15.9385  16.0219
    16.3659  16.4239  16.9991  17.1273  17.2572  18.0392  18.3803  19.2793
    19.6176  19.8147  20.4772  21.0369  21.7229  21.7793  22.3057  22.8997
    23.1352  23.8555

          k = 0.2010 0.4645 0.0000 (  7870 PWs)   bands (ev):

   -13.5094 -13.1354  -6.6535  -6.2944  -4.9443  -4.5387  -3.9666  -2.8135
    -1.5678   1.3994   2.2896   2.3661   4.1691   6.4416   7.6497   7.7483
     8.7040   8.9894   9.4569  10.0738  10.6706  11.1350  11.2572  12.3174
    12.4399  13.1671  13.2916  13.7546  13.9038  14.3551  14.4590  14.9169
    15.6809  15.9345  16.3029  16.7893  17.4304  17.5521  18.2356  18.2479
    19.1551  19.4286  20.4678  20.7734  21.2749  21.3655  21.9041  22.3595
    23.0232  23.3116

          k = 0.2010 0.5807 0.0000 (  7889 PWs)   bands (ev):

   -13.2827 -13.0031  -6.7113  -6.6051  -5.2229  -4.4083  -3.9752  -3.0996
    -1.3143   1.3880   2.4668   2.6471   4.1967   5.7417   7.9169   8.4408
     8.9707   9.2714  10.0872  10.3487  10.9266  11.1570  11.4551  11.8456
    12.2691  12.4498  12.9619  13.6515  13.7631  14.3343  14.7141  15.0985
    15.2643  15.6061  15.8075  15.9514  17.3552  17.8342  18.3059  18.3793
    18.3916  19.2390  19.5389  20.7750  20.9778  21.6079  21.6469  22.3668
    22.7441  23.5548

          k = 0.2017-0.4648 0.0000 (  7876 PWs)   bands (ev):

   -13.5072 -13.1311  -6.6595  -6.3035  -4.9426  -4.5356  -3.9637  -2.8130
    -1.5743   1.4001   2.3129   2.3717   4.1516   6.4377   7.6479   7.7447
     8.7080   8.9860   9.4648  10.0812  10.6620  11.1352  11.2597  12.3245
    12.4274  13.1614  13.2794  13.7588  13.8988  14.3441  14.4625  14.9204
    15.6806  15.9387  16.3051  16.7876  17.4328  17.5613  18.2364  18.2568
    19.1704  19.4253  20.4754  20.7843  21.2816  21.3689  21.9039  22.3725
    23.0296  23.3223

          k = 0.2016-0.3486 0.0000 (  7837 PWs)   bands (ev):

   -14.0312 -13.4353  -6.4655  -5.5331  -4.8800  -4.6017  -3.4839  -2.3436
    -1.8402   1.0321   1.9682   2.1128   3.9634   6.7135   6.9013   7.7409
     8.0042   8.4246   9.2266   9.5725  10.4332  10.7693  10.8939  11.6833
    12.0550  12.9762  13.3018  13.9945  14.9828  15.6996  15.9359  16.0267
    16.3737  16.4248  16.9987  17.1328  17.2548  18.0393  18.3843  19.2770
    19.6269  19.8187  20.4758  21.0424  21.7280  21.7771  22.3181  22.8841
    23.1287  23.8660

          k = 0.2015-0.2325 0.0000 (  7845 PWs)   bands (ev):

   -14.5857 -13.7609  -6.3407  -4.9942  -4.8597  -4.0674  -2.9387  -2.2027
    -1.8738   1.0403   1.6894   1.9658   3.5281   5.9193   6.0715   7.0627
     8.0429   8.1636   8.8145   9.1972   9.8744  10.7746  11.3777  11.8483
    12.1158  12.5066  12.7289  14.2100  14.4971  15.8512  16.2728  16.8098
    16.8354  17.6410  17.8941  18.5508  18.8572  18.9044  19.1044  19.7570
    20.5482  20.8223  21.3136  21.9046  21.9205  22.3376  22.5428  23.0769
    23.4118  23.7631

          k = 0.2014-0.1163 0.0000 (  7839 PWs)   bands (ev):

   -14.9813 -13.9951  -6.4763  -4.7269  -4.4471  -3.2915  -3.0740  -2.3050
    -1.6096   1.2770   1.7782   1.9462   3.0065   5.3592   5.5185   6.4789
     7.6978   7.7485   8.9088   8.9784   9.3673  10.8410  11.4311  11.7937
    11.9129  12.4754  12.8857  13.6258  14.7311  15.4601  16.1206  17.1262
    17.6872  18.0326  18.1867  19.2474  19.7108  20.2604  20.6644  21.5103
    21.5786  21.8132  21.9876  22.0575  22.0959  22.7858  23.2296  23.2643
    23.4353  23.6744

          k = 0.3017 0.5225 0.0000 (  7901 PWs)   bands (ev):

   -13.2122 -12.9472  -6.7349  -6.2750  -5.2332  -4.6974  -4.3635  -3.1849
    -1.1710   1.1297   2.1401   2.8694   4.6629   6.2966   6.9236   8.4248
     9.5341  10.1625  10.8083  10.8404  11.4349  11.6021  11.7283  12.0602
    12.5558  12.6834  12.8310  13.0629  13.3568  13.7963  13.9092  14.0692
    14.6961  14.9955  15.8799  16.0346  16.4445  16.7796  17.8479  18.2786
    19.0337  19.2056  19.3162  19.7689  20.5654  21.8846  21.8917  22.9179
    23.0274  23.8992

          k = 0.3016 0.6387 0.0000 (  7903 PWs)   bands (ev):

   -13.2107 -12.9437  -6.7402  -6.2791  -5.2273  -4.7011  -4.3657  -3.1812
    -1.1744   1.1353   2.1411   2.8807   4.6505   6.2953   6.9168   8.4207
     9.5464  10.1693  10.8093  10.8499  11.4345  11.5856  11.7261  12.0652
    12.5614  12.6912  12.8226  13.0635  13.3559  13.7902  13.9029  14.0630
    14.7021  15.0049  15.8815  16.0294  16.4382  16.7753  17.8586  18.2798
    19.0493  19.2017  19.3188  19.7658  20.5674  21.8867  21.8931  22.9192
    23.0136  23.8948

          k = 0.3023-0.4068 0.0000 (  7872 PWs)   bands (ev):

   -13.5060 -13.1272  -6.6569  -6.3059  -4.9434  -4.5433  -3.9670  -2.8081
    -1.5717   1.4016   2.3118   2.3671   4.1446   6.4419   7.6477   7.7464
     8.7066   8.9863   9.4641  10.0792  10.6537  11.1429  11.2615  12.3300
    12.4435  13.1713  13.2998  13.7625  13.9015  14.3571  14.4706  14.9054
    15.6753  15.9189  16.3033  16.7899  17.4338  17.5614  18.2336  18.2432
    19.1594  19.4327  20.4768  20.7832  21.2739  21.3592  21.9012  22.3651
    23.0381  23.3229

          k = 0.3022-0.2906 0.0000 (  7859 PWs)   bands (ev):

   -13.9489 -13.3922  -6.6649  -5.7431  -5.0825  -4.3351  -2.9401  -2.6482
    -1.8594   1.2268   1.8788   2.5421   3.7827   6.6628   6.8142   7.1499
     8.0178   8.0838   9.4058   9.4066  10.4153  10.7679  11.0061  12.3382
    12.4706  13.1114  13.5789  14.0465  14.4375  15.0933  15.1183  15.7457
    16.2538  16.5577  17.4584  17.5539  18.1176  18.1804  18.8703  19.0527
    19.7315  20.0724  20.4201  20.7709  21.8686  21.8990  22.5519  22.7085
    23.0788  23.8778

          k = 0.3021-0.1744 0.0000 (  7868 PWs)   bands (ev):

   -14.3528 -13.6268  -6.4789  -5.3121  -5.1209  -3.8159  -2.7032  -2.5140
    -2.1155   1.3243   1.5210   2.5019   3.5125   6.1357   6.2831   7.2004
     7.6396   7.6526   8.9180   9.0484  10.4131  10.9241  11.9367  12.3267
    12.3286  12.8822  13.3390  14.3549  14.4764  15.1273  15.3500  15.5330
    16.3722  17.0396  17.6106  17.8076  18.6221  19.4261  19.6832  20.5393
    20.7133  21.2156  21.3842  21.8697  21.9355  21.9791  22.7195  22.8426
    22.8968  23.5452

          k = 0.4022 0.6967 0.0000 (  7891 PWs)   bands (ev):

   -13.2802 -12.9956  -6.7090  -6.6134  -5.2243  -4.4198  -3.9811  -3.0889
    -1.3119   1.3927   2.4649   2.6572   4.1743   5.7411   7.9095   8.4494
     8.9788   9.2607  10.0972  10.3455  10.9297  11.1620  11.4625  11.8503
    12.2791  12.4596  12.9631  13.6577  13.7821  14.3360  14.6996  15.1033
    15.2720  15.6135  15.7896  15.9366  17.3549  17.8214  18.3149  18.3677
    18.3845  19.2465  19.5555  20.7561  20.9689  21.5967  21.6560  22.3761
    22.7296  23.5756

          k = 0.4029-0.3487 0.0000 (  7863 PWs)   bands (ev):

   -13.4767 -13.1290  -7.0661  -6.3256  -5.2793  -4.3806  -2.9845  -2.8184
    -1.5719   1.6056   2.2022   3.0794   3.5692   5.6305   7.4411   7.6704
     8.4314   9.1815   9.4459   9.7137  10.0651  10.9682  11.0106  11.5807
    12.2553  12.5656  13.4590  13.5438  14.4880  14.7316  15.2427  15.7462
    16.0298  16.9224  17.3240  17.4445  17.9730  18.1906  18.3420  18.5382
    19.7070  19.9679  20.4689  20.5365  20.7854  21.0239  21.9530  22.2259
    22.8680  23.5569

          k = 0.4028-0.2326 0.0000 (  7876 PWs)   bands (ev):

   -13.7351 -13.2796  -6.9970  -6.0397  -5.2603  -4.1704  -2.9789  -2.0892
    -2.0681   1.5706   1.8044   2.9681   3.7744   6.0844   6.6039   6.9728
     7.9923   8.4918   9.3530   9.5379  10.3855  10.6995  11.1197  12.2629
    12.6355  12.7140  13.4380  13.7486  14.6336  15.0472  15.1721  16.0547
    16.2473  16.4321  17.3013  17.8245  17.9119  18.8573  19.1950  19.6021
    19.7719  20.7596  20.9889  21.0907  21.2690  21.6520  21.6714  22.2447
    22.8139  23.1387

          k =-0.5028-0.8709 0.0000 (  7876 PWs)   bands (ev):

   -13.4585 -13.1309  -7.2769  -6.3326  -5.3758  -4.2939  -3.0627  -1.9473
    -1.8452   1.6835   2.1675   3.0824   3.8467   5.2679   6.7866   7.4279
     8.3360   8.8141   9.6778  10.1763  10.3977  10.5158  11.0054  11.3246
    11.6774  11.9597  13.3726  13.9395  14.2423  15.0981  15.4264  16.8086
    16.8135  16.9587  17.4297  17.7520  17.7666  18.9264  19.4586  19.4652
    19.8056  20.1953  20.4530  20.7961  21.0744  21.1927  21.3436  21.8276
    22.6846  22.8216

          k =-0.1006-0.0580 0.0000 (  7847 PWs)   bands (ev):

   -15.4207 -14.2588  -6.8450  -4.0247  -3.6491  -3.5069  -2.7224  -2.2207
    -1.2947   1.8853   1.8956   2.2017   2.3825   4.7660   4.9256   5.8795
     6.4063   7.1901   8.5437   9.0283   9.5452  10.4963  10.5988  11.2505
    12.1442  12.2353  12.9199  14.6287  15.4707  15.9615  15.9812  16.2431
    16.6252  17.2233  19.4802  20.7826  20.9784  21.0157  21.3595  21.8458
    22.6627  23.2144  23.2247  23.3112  23.3252  24.0446  24.3071  24.3805
    25.0833  25.2783

          k =-0.2013-0.1160 0.0000 (  7841 PWs)   bands (ev):

   -14.9825 -13.9980  -6.4760  -4.7311  -4.4613  -3.2644  -3.0645  -2.3079
    -1.6209   1.2677   1.7979   1.9575   2.9967   5.3587   5.5176   6.4786
     7.6959   7.7469   8.9030   8.9720   9.3594  10.8373  11.4277  11.8030
    11.9144  12.4990  12.8729  13.6258  14.7470  15.4459  16.1173  17.1244
    17.6834  18.0076  18.1553  19.2185  19.6878  20.2380  20.6655  21.5109
    21.5918  21.8112  22.0162  22.0441  22.1229  22.8021  23.2499  23.2661
    23.4283  23.6750

          k =-0.3019-0.1740 0.0000 (  7848 PWs)   bands (ev):

   -14.3551 -13.6332  -6.4785  -5.3184  -5.1238  -3.7892  -2.7076  -2.5022
    -2.1323   1.3242   1.5334   2.5146   3.5090   6.1356   6.2808   7.1996
     7.6367   7.6430   8.9182   9.0447  10.4046  10.9251  11.9239  12.3207
    12.3393  12.8719  13.3504  14.3372  14.4883  15.1099  15.3331  15.5207
    16.3515  17.0255  17.5989  17.8086  18.6209  19.4050  19.6823  20.5684
    20.7269  21.2175  21.4109  21.8935  21.9332  22.0129  22.7308  22.8540
    22.8935  23.5774

          k =-0.4025-0.2320 0.0000 (  7875 PWs)   bands (ev):

   -13.7385 -13.2900  -7.0000  -6.0359  -5.2589  -4.1436  -2.9908  -2.0927
    -2.0656   1.5711   1.8064   2.9875   3.7759   6.0744   6.6052   6.9755
     7.9941   8.4880   9.3481   9.5295  10.3682  10.6886  11.1343  12.2510
    12.6241  12.7018  13.4222  13.7377  14.6376  15.0326  15.1581  16.0700
    16.2442  16.4170  17.2839  17.8178  17.9031  18.8508  19.2072  19.6317
    19.7730  20.7695  21.0173  21.0862  21.3042  21.6714  21.6918  22.2398
    22.8475  23.1560

          k = 0.5032 0.2901 0.0000 (  7872 PWs)   bands (ev):

   -13.4622 -13.1433  -7.2818  -6.3243  -5.3720  -4.2670  -3.0781  -1.9294
    -1.8613   1.6776   2.1667   3.1052   3.8502   5.2640   6.7988   7.4303
     8.3217   8.8030   9.6699  10.1668  10.3835  10.5331  10.9922  11.3160
    11.6621  11.9499  13.3592  13.9303  14.2328  15.0894  15.4341  16.7974
    16.8317  16.9483  17.4269  17.7250  17.7725  18.9140  19.4504  19.4919
    19.8194  20.1804  20.4393  20.8270  21.1097  21.2228  21.3698  21.8142
    22.7182  22.8488

          k =-0.2012-0.2322 0.0000 (  7845 PWs)   bands (ev):

   -14.5879 -13.7661  -6.3400  -4.9923  -4.8667  -4.0504  -2.9366  -2.2006
    -1.8846   1.0484   1.6858   1.9783   3.5222   5.9173   6.0710   7.0610
     8.0403   8.1697   8.8141   9.1938   9.8729  10.7867  11.3730  11.8452
    12.1043  12.5022  12.7221  14.2118  14.4903  15.8518  16.2662  16.7907
    16.8276  17.6357  17.8769  18.5573  18.8546  18.9040  19.0970  19.7695
    20.5335  20.8291  21.2992  21.9116  21.9141  22.3379  22.5581  23.0617
    23.3941  23.7714

          k =-0.3018-0.2902 0.0000 (  7864 PWs)   bands (ev):

   -13.9523 -13.4011  -6.6637  -5.7382  -5.0824  -4.3210  -2.9412  -2.6514
    -1.8607   1.2338   1.8669   2.5494   3.7948   6.6563   6.8122   7.1511
     8.0184   8.0789   9.4060   9.4108  10.4052  10.7657  11.0097  12.3282
    12.4639  13.1072  13.5740  14.0330  14.4247  15.0855  15.1094  15.7402
    16.2437  16.5549  17.4496  17.5650  18.1243  18.1757  18.8861  19.0511
    19.7216  20.0732  20.4279  20.7876  21.8663  21.9045  22.5471  22.7236
    23.0868  23.9003

          k =-0.4025-0.3482 0.0000 (  7861 PWs)   bands (ev):

   -13.4805 -13.1403  -7.0687  -6.3160  -5.2771  -4.3615  -2.9966  -2.8131
    -1.5745   1.6048   2.1894   3.0811   3.5961   5.6288   7.4431   7.6708
     8.4298   9.1773   9.4424   9.7024  10.0703  10.9574  11.0014  11.5701
    12.2450  12.5572  13.4516  13.5344  14.4842  14.7293  15.2293  15.7397
    16.0318  16.9344  17.3157  17.4514  17.9758  18.1800  18.3657  18.5417
    19.7148  19.9689  20.4545  20.5536  20.7756  21.0311  21.9617  22.2122
    22.8874  23.5664

          k = 0.5033 0.1739 0.0000 (  7863 PWs)   bands (ev):

   -13.4798 -13.1391  -7.0708  -6.3190  -5.2760  -4.3593  -2.9973  -2.8131
    -1.5764   1.6001   2.2042   3.0977   3.5751   5.6260   7.4463   7.6688
     8.4288   9.1851   9.4404   9.7019  10.0661  10.9641  11.0019  11.5643
    12.2419  12.5509  13.4469  13.5355  14.4880  14.7206  15.2327  15.7298
    16.0227  16.9378  17.3193  17.4545  17.9866  18.1914  18.3692  18.5461
    19.7138  19.9774  20.4632  20.5403  20.7818  21.0330  21.9701  22.2186
    22.8854  23.5629

          k = 0.4026 0.1159 0.0000 (  7858 PWs)   bands (ev):

   -13.9508 -13.3983  -6.6671  -5.7455  -5.0830  -4.3159  -2.9394  -2.6530
    -1.8614   1.2273   1.8859   2.5543   3.7820   6.6566   6.8137   7.1466
     8.0188   8.0815   9.4061   9.4064  10.4222  10.7608  11.0015  12.3255
    12.4590  13.0994  13.5750  14.0251  14.4205  15.0786  15.1189  15.7516
    16.2408  16.5499  17.4571  17.5702  18.1340  18.1786  18.8964  19.0518
    19.7296  20.0749  20.4364  20.7914  21.8784  21.9013  22.5463  22.7272
    23.0806  23.8957

          k = 0.3020 0.0579 0.0000 (  7839 PWs)   bands (ev):

   -14.5865 -13.7632  -6.3403  -4.9974  -4.8704  -4.0501  -2.9343  -2.2021
    -1.8795   1.0405   1.6971   1.9690   3.5272   5.9190   6.0708   7.0626
     8.0403   8.1609   8.8128   9.1900   9.8705  10.7780  11.3792  11.8461
    12.1216  12.5063  12.7209  14.2176  14.4979  15.8454  16.2632  16.7806
    16.8244  17.6411  17.8672  18.5709  18.8594  18.9115  19.1020  19.7865
    20.5302  20.8430  21.3107  21.9080  21.9225  22.3427  22.5562  23.0718
    23.3930  23.7764

          k = 0.2013-0.0001 0.0000 (  7855 PWs)   bands (ev):

   -15.1230 -14.0800  -6.5676  -4.5278  -4.1488  -3.3571  -3.2368  -2.0334
    -1.4761   1.3760   1.7280   1.8611   2.9227   5.1887   5.3339   6.3191
     7.5630   7.6038   8.7261   9.2922   9.4840  10.3251  11.1296  11.3011
    12.0309  12.3451  12.8751  14.3268  14.5510  15.8453  16.0303  16.5652
    17.4270  19.0618  19.5706  19.6680  19.9544  20.0721  20.6388  20.9844
    21.3157  21.5021  21.8384  22.1395  22.2961  22.8700  23.0117  23.7628
    24.2352  24.7882

          k =-0.3018-0.4064 0.0000 (  7870 PWs)   bands (ev):

   -13.5094 -13.1354  -6.6535  -6.2944  -4.9443  -4.5387  -3.9666  -2.8135
    -1.5678   1.3994   2.2896   2.3661   4.1691   6.4416   7.6496   7.7483
     8.7040   8.9894   9.4569  10.0738  10.6706  11.1350  11.2571  12.3174
    12.4399  13.1671  13.2916  13.7546  13.9038  14.3551  14.4590  14.9169
    15.6809  15.9345  16.3029  16.7893  17.4304  17.5521  18.2356  18.2479
    19.1551  19.4286  20.4678  20.7734  21.2749  21.3655  21.9041  22.3595
    23.0232  23.3116

          k =-0.4024-0.4644 0.0000 (  7889 PWs)   bands (ev):

   -13.2827 -13.0031  -6.7113  -6.6051  -5.2229  -4.4083  -3.9752  -3.0996
    -1.3143   1.3880   2.4668   2.6471   4.1967   5.7417   7.9169   8.4408
     8.9707   9.2714  10.0872  10.3487  10.9266  11.1570  11.4551  11.8456
    12.2691  12.4498  12.9619  13.6515  13.7631  14.3343  14.7141  15.0985
    15.2643  15.6061  15.8075  15.9514  17.3552  17.8342  18.3059  18.3793
    18.3916  19.2390  19.5389  20.7750  20.9778  21.6079  21.6469  22.3668
    22.7441  23.5548

          k = 0.5033 0.0577 0.0000 (  7876 PWs)   bands (ev):

   -13.5072 -13.1311  -6.6595  -6.3035  -4.9426  -4.5356  -3.9637  -2.8130
    -1.5743   1.4001   2.3129   2.3717   4.1516   6.4377   7.6479   7.7447
     8.7080   8.9860   9.4648  10.0812  10.6620  11.1352  11.2597  12.3245
    12.4274  13.1614  13.2794  13.7588  13.8988  14.3441  14.4625  14.9204
    15.6806  15.9387  16.3051  16.7876  17.4328  17.5613  18.2364  18.2568
    19.1704  19.4253  20.4754  20.7843  21.2816  21.3689  21.9039  22.3725
    23.0296  23.3223

          k = 0.4027-0.0003 0.0000 (  7837 PWs)   bands (ev):

   -14.0312 -13.4353  -6.4655  -5.5331  -4.8800  -4.6017  -3.4839  -2.3436
    -1.8402   1.0321   1.9682   2.1128   3.9634   6.7135   6.9013   7.7409
     8.0042   8.4246   9.2266   9.5725  10.4332  10.7693  10.8939  11.6833
    12.0550  12.9762  13.3018  13.9945  14.9828  15.6996  15.9359  16.0267
    16.3737  16.4248  16.9987  17.1328  17.2548  18.0393  18.3843  19.2770
    19.6269  19.8187  20.4758  21.0424  21.7280  21.7771  22.3181  22.8841
    23.1287  23.8660

          k = 0.3021-0.0583 0.0000 (  7845 PWs)   bands (ev):

   -14.5857 -13.7609  -6.3407  -4.9942  -4.8597  -4.0674  -2.9387  -2.2027
    -1.8738   1.0403   1.6894   1.9658   3.5281   5.9193   6.0715   7.0627
     8.0428   8.1636   8.8145   9.1972   9.8744  10.7746  11.3777  11.8483
    12.1158  12.5066  12.7289  14.2100  14.4971  15.8512  16.2728  16.8098
    16.8354  17.6410  17.8941  18.5508  18.8572  18.9044  19.1044  19.7570
    20.5482  20.8223  21.3136  21.9046  21.9205  22.3376  22.5428  23.0769
    23.4118  23.7631

          k =-0.4023-0.5805 0.0000 (  7903 PWs)   bands (ev):

   -13.2107 -12.9437  -6.7402  -6.2791  -5.2273  -4.7011  -4.3657  -3.1812
    -1.1744   1.1353   2.1411   2.8807   4.6505   6.2953   6.9168   8.4207
     9.5464  10.1693  10.8093  10.8499  11.4345  11.5856  11.7261  12.0652
    12.5614  12.6912  12.8226  13.0635  13.3559  13.7902  13.9029  14.0630
    14.7021  15.0049  15.8815  16.0294  16.4382  16.7753  17.8586  18.2798
    19.0493  19.2017  19.3188  19.7658  20.5674  21.8867  21.8931  22.9193
    23.0136  23.8948

          k = 0.5034-0.0584 0.0000 (  7872 PWs)   bands (ev):

   -13.5060 -13.1272  -6.6569  -6.3059  -4.9434  -4.5433  -3.9670  -2.8081
    -1.5717   1.4016   2.3118   2.3671   4.1446   6.4419   7.6477   7.7464
     8.7066   8.9863   9.4641  10.0792  10.6537  11.1429  11.2615  12.3300
    12.4435  13.1713  13.2998  13.7625  13.9015  14.3571  14.4706  14.9054
    15.6753  15.9189  16.3033  16.7899  17.4338  17.5614  18.2336  18.2432
    19.1594  19.4327  20.4768  20.7832  21.2739  21.3592  21.9012  22.3651
    23.0381  23.3229

          k = 0.4028-0.1164 0.0000 (  7859 PWs)   bands (ev):

   -13.9489 -13.3922  -6.6649  -5.7431  -5.0825  -4.3351  -2.9401  -2.6482
    -1.8594   1.2268   1.8788   2.5421   3.7827   6.6628   6.8142   7.1499
     8.0178   8.0838   9.4058   9.4066  10.4153  10.7679  11.0061  12.3382
    12.4705  13.1114  13.5789  14.0465  14.4375  15.0933  15.1183  15.7457
    16.2538  16.5577  17.4584  17.5539  18.1176  18.1804  18.8703  19.0527
    19.7315  20.0724  20.4201  20.7709  21.8686  21.8990  22.5519  22.7085
    23.0788  23.8778

          k = 0.5035-0.1746 0.0000 (  7863 PWs)   bands (ev):

   -13.4767 -13.1290  -7.0661  -6.3256  -5.2793  -4.3806  -2.9845  -2.8184
    -1.5719   1.6056   2.2022   3.0793   3.5692   5.6305   7.4411   7.6704
     8.4314   9.1815   9.4459   9.7137  10.0651  10.9682  11.0106  11.5807
    12.2553  12.5656  13.4590  13.5438  14.4880  14.7316  15.2427  15.7462
    16.0298  16.9224  17.3240  17.4445  17.9730  18.1906  18.3420  18.5382
    19.7070  19.9679  20.4689  20.5365  20.7854  21.0239  21.9530  22.2259
    22.8680  23.5569

     highest occupied, lowest unoccupied level (ev):    -1.1710    1.0321

!    total energy              =     -57.55750012 Ry
     Harris-Foulkes estimate   =     -57.55750013 Ry
     estimated scf accuracy    <          2.3E-09 Ry

     The total energy is the sum of the following terms:

     one-electron contribution =    -414.44014487 Ry
     hartree contribution      =     211.73514318 Ry
     xc contribution           =     -13.24858588 Ry
     ewald contribution        =     158.43920101 Ry
     Dispersion Correction     =      -0.04311356 Ry

     convergence has been achieved in   8 iterations

     Forces acting on atoms (cartesian axes, Ry/au):

     atom    1 type  1   force =    -0.00230829    0.00133250   -0.00001245
     atom    2 type  2   force =     0.00115419   -0.00066628    0.00136617
     atom    3 type  2   force =     0.00115410   -0.00066622   -0.00135372

     Total force =     0.003789     Total SCF correction =     0.000154


     Computing stress (Cartesian axis) and pressure

          total   stress  (Ry/bohr**3)                   (kbar)     P=        3.41
   0.00003374  -0.00000149  -0.00000000            4.96       -0.22       -0.00
  -0.00000149   0.00003202   0.00000000           -0.22        4.71        0.00
  -0.00000000   0.00000000   0.00000370           -0.00        0.00        0.54


     number of scf cycles    =   2
     number of bfgs steps    =   1

     enthalpy old            =     -57.5572850863 Ry
     enthalpy new            =     -57.5575001238 Ry

     CASE: enthalpy_new < enthalpy_old

     new trust radius        =       0.0103638467 bohr
     new conv_thr            =       0.0000000002 Ry

     new unit-cell volume =   1007.14797 a.u.^3 (   149.24393 Ang^3 )
     density =      1.78110 g/cm^3

CELL_PARAMETERS (alat=  5.85783961)
   0.994931611   0.000606289   0.000000000
  -0.496940747   0.861939586   0.000000000
   0.000000000   0.000000000   5.840610472

ATOMIC_POSITIONS (angstrom)
Mo            1.5309553117        0.8627051147       11.1592415359
S            -0.0094381851        1.7520524170       12.7084633775
S            -0.0094380227        1.7520523093        9.6100540867



     Writing output data file ./out/1x1_MoS2.save/
     NEW-OLD atomic charge density approx. for the potential

     negative rho (up, down):  3.972E-04 0.000E+00
     extrapolated charge   18.05753, renormalised to   18.00000

     total cpu time spent up to now is      350.3 secs

     Self-consistent Calculation

     iteration #  1     ecut=    60.00 Ry     beta= 0.70
     Davidson diagonalization with overlap
     ethr =  1.00E-06,  avg # of iterations =  6.0

     negative rho (up, down):  9.109E-05 0.000E+00

     total cpu time spent up to now is      382.1 secs

     total energy              =     -57.54548486 Ry
     Harris-Foulkes estimate   =     -56.26481616 Ry
     estimated scf accuracy    <       0.01131909 Ry

     iteration #  2     ecut=    60.00 Ry     beta= 0.70
     Davidson diagonalization with overlap
     ethr =  6.29E-05,  avg # of iterations =  4.6

     negative rho (up, down):  2.230E-05 0.000E+00

     total cpu time spent up to now is      400.6 secs

     total energy              =     -57.54212396 Ry
     Harris-Foulkes estimate   =     -57.58745671 Ry
     estimated scf accuracy    <       0.19902640 Ry

     iteration #  3     ecut=    60.00 Ry     beta= 0.70
     Davidson diagonalization with overlap
     ethr =  6.29E-05,  avg # of iterations =  3.1

     negative rho (up, down):  5.428E-06 0.000E+00

     total cpu time spent up to now is      414.9 secs

     total energy              =     -57.55798732 Ry
     Harris-Foulkes estimate   =     -57.55891681 Ry
     estimated scf accuracy    <       0.00688981 Ry

     iteration #  4     ecut=    60.00 Ry     beta= 0.70
     Davidson diagonalization with overlap
     ethr =  3.83E-05,  avg # of iterations =  1.0

     negative rho (up, down):  1.413E-06 0.000E+00

     total cpu time spent up to now is      424.8 secs

     total energy              =     -57.55775329 Ry
     Harris-Foulkes estimate   =     -57.55812340 Ry
     estimated scf accuracy    <       0.00314025 Ry

     iteration #  5     ecut=    60.00 Ry     beta= 0.70
     Davidson diagonalization with overlap
     ethr =  1.74E-05,  avg # of iterations =  1.0

     negative rho (up, down):  4.308E-07 0.000E+00

     total cpu time spent up to now is      435.5 secs

     total energy              =     -57.55761252 Ry
     Harris-Foulkes estimate   =     -57.55780683 Ry
     estimated scf accuracy    <       0.00129626 Ry

     iteration #  6     ecut=    60.00 Ry     beta= 0.70
     Davidson diagonalization with overlap
     ethr =  7.20E-06,  avg # of iterations =  2.7

     negative rho (up, down):  1.334E-07 0.000E+00

     total cpu time spent up to now is      447.0 secs

     total energy              =     -57.55758084 Ry
     Harris-Foulkes estimate   =     -57.55764935 Ry
     estimated scf accuracy    <       0.00037996 Ry

     iteration #  7     ecut=    60.00 Ry     beta= 0.70
     Davidson diagonalization with overlap
     ethr =  2.11E-06,  avg # of iterations =  2.7

     total cpu time spent up to now is      459.3 secs

     total energy              =     -57.55757811 Ry
     Harris-Foulkes estimate   =     -57.55759689 Ry
     estimated scf accuracy    <       0.00007294 Ry

     iteration #  8     ecut=    60.00 Ry     beta= 0.70
     Davidson diagonalization with overlap
     ethr =  4.05E-07,  avg # of iterations =  1.0

     total cpu time spent up to now is      470.0 secs

[...]
    17.5861  17.8826  18.0211  19.0817  19.5652  20.1180  20.5176  21.3993
    21.4344  21.7123  21.8114  21.9072  21.9341  22.6128  23.0539  23.0937
    23.2746  23.5062

          k = 0.3005 0.5205 0.0000 (  7973 PWs)   bands (ev):

   -13.2663 -12.9804  -6.7403  -6.2843  -5.2473  -4.7425  -4.3811  -3.2055
    -1.2283   1.0262   2.1087   2.7830   4.5299   6.2249   6.8472   8.3578
     9.4436  10.0732  10.7119  10.7544  11.3433  11.4644  11.6094  11.9775
    12.4612  12.5638  12.7224  12.9434  13.2633  13.6917  13.8038  13.9606
    14.6091  14.9086  15.7885  15.9414  16.3424  16.6730  17.7615  18.1830
    18.8472  19.0943  19.2133  19.6539  20.4457  21.7723  21.7814  22.7723
    22.8930  23.7025

          k = 0.3005 0.6362 0.0000 (  7979 PWs)   bands (ev):

   -13.2659 -12.9799  -6.7409  -6.2851  -5.2466  -4.7427  -4.3816  -3.2050
    -1.2290   1.0271   2.1086   2.7848   4.5287   6.2245   6.8465   8.3576
     9.4456  10.0736  10.7111  10.7563  11.3434  11.4609  11.6097  11.9785
    12.4622  12.5654  12.7206  12.9437  13.2631  13.6904  13.8028  13.9590
    14.6101  14.9106  15.7887  15.9403  16.3416  16.6718  17.7634  18.1834
    18.8506  19.0938  19.2139  19.6531  20.4458  21.7741  21.7800  22.7732
    22.8909  23.7015

          k = 0.3007-0.4049 0.0000 (  7957 PWs)   bands (ev):

   -13.5530 -13.1596  -6.6652  -6.3097  -4.9780  -4.5585  -4.0038  -2.8396
    -1.6276   1.3318   2.1875   2.3153   4.0558   6.3644   7.5752   7.6841
     8.6270   8.9003   9.3850   9.9981  10.5576  11.0677  11.1713  12.2348
    12.2991  13.0620  13.1770  13.6751  13.7883  14.2406  14.3713  14.7968
    15.5723  15.8089  16.1887  16.6792  17.3326  17.4597  18.1213  18.1341
    18.9968  19.3165  20.3352  20.6637  21.1293  21.2239  21.7562  22.1992
    22.8472  23.1671

          k = 0.3006-0.2892 0.0000 (  7940 PWs)   bands (ev):

   -13.9841 -13.4173  -6.6785  -5.7519  -5.1178  -4.3608  -2.9923  -2.6806
    -1.9183   1.1752   1.7809   2.4718   3.7023   6.5754   6.7653   7.0790
     7.9523   8.0191   9.3304   9.3333  10.3179  10.6961  10.9142  12.1953
    12.3862  13.0013  13.4840  13.9225  14.3224  14.9743  14.9856  15.6227
    16.1418  16.4399  17.3646  17.4226  17.9832  18.0520  18.7378  18.9175
    19.5913  19.9478  20.2886  20.6428  21.7152  21.7654  22.4467  22.5820
    22.9379  23.7247

          k = 0.3006-0.1736 0.0000 (  7926 PWs)   bands (ev):

   -14.3780 -13.6446  -6.4956  -5.3270  -5.1613  -3.8572  -2.7287  -2.5921
    -2.1530   1.2793   1.4448   2.4286   3.4169   6.0747   6.2376   7.1382
     7.5735   7.5914   8.8557   8.9527  10.3378  10.8431  11.7990  12.1968
    12.2675  12.7756  13.2402  14.2249  14.3510  14.9990  15.2254  15.4183
    16.2431  16.9297  17.5071  17.6750  18.5101  19.2931  19.5464  20.3814
    20.5672  21.0796  21.2265  21.7161  21.8196  21.8247  22.5823  22.7054
    22.7855  23.3647

          k = 0.4007 0.6940 0.0000 (  7972 PWs)   bands (ev):

   -13.3342 -13.0332  -6.7135  -6.6103  -5.2485  -4.4361  -4.0203  -3.1166
    -1.3701   1.2850   2.4241   2.5517   4.0825   5.6725   7.8360   8.3738
     8.8790   9.1751  10.0077  10.2498  10.8370  11.0670  11.3770  11.7515
    12.1868  12.3629  12.8655  13.5348  13.6578  14.2186  14.5908  15.0063
    15.1815  15.4997  15.6847  15.8315  17.2610  17.7217  18.2057  18.2586
    18.2626  19.1100  19.3894  20.6441  20.8618  21.4670  21.4908  22.2557
    22.5748  23.3550

          k = 0.4008-0.3471 0.0000 (  7972 PWs)   bands (ev):

   -13.5255 -13.1640  -7.0704  -6.3203  -5.3020  -4.4074  -3.0118  -2.8704
    -1.6337   1.5110   2.0948   3.0147   3.5064   5.5447   7.3835   7.5968
     8.3493   9.1062   9.3674   9.6318   9.9744  10.8834  10.9265  11.4848
    12.1671  12.4661  13.3680  13.4471  14.3787  14.6077  15.1471  15.5961
    15.9168  16.7939  17.2225  17.3286  17.8426  18.0376  18.2154  18.4215
    19.5931  19.8431  20.2901  20.3971  20.6387  20.8749  21.7976  22.0936
    22.7525  23.4218

          k = 0.4008-0.2314 0.0000 (  7972 PWs)   bands (ev):

   -13.7765 -13.3097  -7.0055  -6.0376  -5.2859  -4.2073  -3.0026  -2.1655
    -2.1140   1.4707   1.7358   2.9084   3.6878   5.9784   6.5658   6.9128
     7.9223   8.4234   9.2865   9.4601  10.3091  10.6213  11.0027  12.1570
    12.5444  12.6211  13.3251  13.6629  14.5083  14.8928  15.0760  15.9209
    16.1465  16.2967  17.1701  17.7137  17.7582  18.7271  19.0937  19.4605
    19.6375  20.6117  20.8335  20.9535  21.1184  21.5107  21.5198  22.1272
    22.6822  22.9942

          k =-0.5009-0.8675 0.0000 (  7952 PWs)   bands (ev):

   -13.5082 -13.1668  -7.2786  -6.3225  -5.3945  -4.3294  -3.0867  -2.0205
    -1.8955   1.5679   2.0754   3.0327   3.7638   5.1756   6.7453   7.3567
     8.2565   8.7555   9.5921  10.0923  10.3151  10.4104  10.9183  11.2411
    11.5954  11.8742  13.2874  13.8375  14.1484  15.0179  15.2949  16.6845
    16.7145  16.8231  17.2976  17.5773  17.6325  18.8145  19.2639  19.3151
    19.6885  20.0560  20.2670  20.6430  20.9242  21.0428  21.1920  21.7268
    22.5551  22.6879

          k =-0.1002-0.0578 0.0000 (  7961 PWs)   bands (ev):

   -15.4235 -14.2571  -6.8546  -4.0841  -3.6652  -3.5784  -2.8027  -2.2692
    -1.3036   1.8034   1.8206   2.1125   2.2940   4.7234   4.8909   5.8257
     6.2913   7.1549   8.4992   8.9117   9.4661  10.3976  10.5542  11.1908
    12.0824  12.1499  12.8226  14.5419  15.4224  15.8290  15.8699  16.1432
    16.5357  17.1123  19.3656  20.6458  20.8984  20.9067  21.2132  21.6948
    22.4955  23.0152  23.0527  23.1297  23.1325  23.8613  24.1021  24.1651
    24.8620  25.0799

          k =-0.2004-0.1157 0.0000 (  7941 PWs)   bands (ev):

   -14.9933 -14.0019  -6.4916  -4.7806  -4.4764  -3.3359  -3.1436  -2.3430
    -1.6404   1.2248   1.7141   1.8699   2.9038   5.3112   5.4762   6.4306
     7.6413   7.6545   8.7966   8.9128   9.2991  10.7456  11.3601  11.6850
    11.8256  12.4082  12.8052  13.5384  14.6077  15.3219  16.0605  17.0085
    17.5850  17.8772  18.0147  19.0755  19.5607  20.1131  20.5177  21.3987
    21.4366  21.7114  21.8176  21.9036  21.9404  22.6164  23.0605  23.0925
    23.2740  23.5050

          k =-0.3006-0.1735 0.0000 (  7924 PWs)   bands (ev):

   -14.3788 -13.6456  -6.4957  -5.3278  -5.1629  -3.8533  -2.7295  -2.5893
    -2.1546   1.2789   1.4471   2.4296   3.4176   6.0745   6.2369   7.1383
     7.5719   7.5912   8.8556   8.9514  10.3364  10.8419  11.7954  12.1999
    12.2661  12.7740  13.2432  14.2230  14.3530  14.9950  15.2216  15.4165
    16.2385  16.9268  17.5047  17.6766  18.5092  19.2894  19.5466  20.3877
    20.5700  21.0797  21.2329  21.7211  21.8241  21.8268  22.5838  22.7078
    22.7842  23.3713

          k =-0.4008-0.2313 0.0000 (  7970 PWs)   bands (ev):

   -13.7776 -13.3112  -7.0059  -6.0374  -5.2867  -4.2032  -3.0040  -2.1621
    -2.1160   1.4712   1.7356   2.9101   3.6890   5.9763   6.5664   6.9132
     7.9223   8.4224   9.2857   9.4582  10.3067  10.6188  11.0069  12.1539
    12.5420  12.6188  13.3222  13.6604  14.5103  14.8891  15.0734  15.9220
    16.1461  16.2947  17.1664  17.7131  17.7582  18.7260  19.0959  19.4670
    19.6375  20.6145  20.8401  20.9525  21.1261  21.5150  21.5246  22.1259
    22.6891  23.0011

          k = 0.5010 0.2891 0.0000 (  7952 PWs)   bands (ev):

   -13.5095 -13.1686  -7.2792  -6.3218  -5.3948  -4.3251  -3.0884  -2.0167
    -1.8977   1.5672   2.0751   3.0349   3.7653   5.1738   6.7476   7.3574
     8.2538   8.7543   9.5901  10.0900  10.3126  10.4152  10.9155  11.2388
    11.5932  11.8719  13.2847  13.8349  14.1470  15.0158  15.2973  16.6860
    16.7117  16.8200  17.2972  17.5749  17.6346  18.8125  19.2626  19.3211
    19.6917  20.0524  20.2647  20.6500  20.9319  21.0493  21.1978  21.7241
    22.5622  22.6927

          k =-0.2004-0.2313 0.0000 (  7922 PWs)   bands (ev):

   -14.6061 -13.7744  -6.3588  -5.0399  -4.8846  -4.0959  -3.0066  -2.2430
    -1.9151   1.0022   1.6135   1.8919   3.4323   5.8640   6.0226   7.0095
     7.9932   8.0858   8.7539   9.0729   9.7819  10.7116  11.2761  11.7511
    11.9924  12.4340  12.6295  14.0995  14.3795  15.7407  16.1702  16.6546
    16.7338  17.5077  17.7407  18.4184  18.7148  18.7753  18.9622  19.6137
    20.3939  20.6811  21.2025  21.7600  21.7835  22.2215  22.4089  22.9291
    23.2222  23.6086

          k =-0.3006-0.2892 0.0000 (  7940 PWs)   bands (ev):

   -13.9851 -13.4186  -6.6782  -5.7515  -5.1188  -4.3582  -2.9920  -2.6812
    -1.9172   1.1761   1.7789   2.4738   3.7026   6.5742   6.7650   7.0790
     7.9532   8.0180   9.3308   9.3331  10.3178  10.6948  10.9146  12.1927
    12.3855  13.0010  13.4837  13.9195  14.3197  14.9725  14.9846  15.6212
    16.1397  16.4395  17.3632  17.4250  17.9849  18.0509  18.7413  18.9175
    19.5904  19.9482  20.2903  20.6457  21.7149  21.7658  22.4458  22.5857
    22.9381  23.7300

          k =-0.4007-0.3470 0.0000 (  7974 PWs)   bands (ev):

   -13.5267 -13.1656  -7.0706  -6.3194  -5.3025  -4.4043  -3.0132  -2.8690
    -1.6335   1.5109   2.0927   3.0164   3.5080   5.5434   7.3847   7.5970
     8.3490   9.1068   9.3669   9.6292   9.9753  10.8815  10.9244  11.4829
    12.1648  12.4641  13.3669  13.4453  14.3787  14.6063  15.1445  15.5960
    15.9165  16.7965  17.2209  17.3298  17.8442  18.0354  18.2207  18.4222
    19.5949  19.8438  20.2882  20.3992  20.6371  20.8773  21.7992  22.0915
    22.7560  23.4240

          k = 0.5010 0.1734 0.0000 (  7974 PWs)   bands (ev):

   -13.5266 -13.1655  -7.0710  -6.3197  -5.3024  -4.4044  -3.0129  -2.8685
    -1.6343   1.5103   2.0951   3.0161   3.5080   5.5427   7.3847   7.5974
     8.3487   9.1067   9.3673   9.6293   9.9753  10.8821  10.9245  11.4819
    12.1642  12.4631  13.3658  13.4453  14.3790  14.6048  15.1453  15.5939
    15.9144  16.7968  17.2218  17.3307  17.8459  18.0376  18.2213  18.4235
    19.5948  19.8444  20.2907  20.3988  20.6379  20.8777  21.8007  22.0918
    22.7562  23.4236

          k = 0.4008 0.1156 0.0000 (  7940 PWs)   bands (ev):

   -13.9847 -13.4182  -6.6788  -5.7523  -5.1189  -4.3582  -2.9906  -2.6808
    -1.9186   1.1754   1.7819   2.4725   3.7033   6.5742   6.7650   7.0783
     7.9527   8.0187   9.3307   9.3330  10.3196  10.6943  10.9142  12.1919
    12.3840  12.9990  13.4832  13.9178  14.3188  14.9709  14.9870  15.6232
    16.1392  16.4393  17.3642  17.4263  17.9871  18.0514  18.7436  18.9188
    19.5911  19.9487  20.2921  20.6468  21.7169  21.7652  22.4458  22.5858
    22.9368  23.7292

          k = 0.3006 0.0578 0.0000 (  7925 PWs)   bands (ev):

   -14.6057 -13.7740  -6.3588  -5.0403  -4.8853  -4.0959  -3.0060  -2.2428
    -1.9155   1.0017   1.6149   1.8897   3.4338   5.8644   6.0228   7.0099
     7.9930   8.0848   8.7532   9.0723   9.7821  10.7103  11.2746  11.7512
    11.9958  12.4338  12.6301  14.1009  14.3813  15.7394  16.1694  16.6527
    16.7333  17.5088  17.7389  18.4216  18.7156  18.7772  18.9630  19.6176
    20.3932  20.6842  21.2046  21.7609  21.7829  22.2228  22.4081  22.9308
    23.2222  23.6093

          k = 0.2004-0.0000 0.0000 (  7945 PWs)   bands (ev):

   -15.1315 -14.0833  -6.5817  -4.5810  -4.1724  -3.4102  -3.3095  -2.0822
    -1.4987   1.3228   1.6497   1.7867   2.8221   5.1434   5.2939   6.2734
     7.4606   7.5222   8.6721   9.2178   9.3994  10.2610  11.0272  11.2137
    11.9645  12.2618  12.7909  14.2407  14.4139  15.7926  15.9128  16.4545
    17.3276  18.9249  19.4080  19.5255  19.7859  19.9124  20.4857  20.8378
    21.1812  21.4168  21.6787  21.9898  22.1376  22.7052  22.8255  23.5752
    24.0644  24.4547

          k =-0.3005-0.4048 0.0000 (  7957 PWs)   bands (ev):

   -13.5540 -13.1608  -6.6644  -6.3085  -4.9787  -4.5572  -4.0036  -2.8404
    -1.6265   1.3314   2.1838   2.3161   4.0575   6.3640   7.5755   7.6841
     8.6265   8.9019   9.3837   9.9977  10.5609  11.0659  11.1710  12.2335
    12.2974  13.0615  13.1752  13.6737  13.7882  14.2404  14.3690  14.7995
    15.5734  15.8123  16.1887  16.6788  17.3321  17.4580  18.1217  18.1353
    18.9957  19.3155  20.3337  20.6617  21.1299  21.2239  21.7572  22.1986
    22.8441  23.1661

          k =-0.4007-0.4627 0.0000 (  7968 PWs)   bands (ev):

   -13.3350 -13.0343  -6.7137  -6.6094  -5.2489  -4.4344  -4.0190  -3.1176
    -1.3704   1.2843   2.4246   2.5502   4.0848   5.6714   7.8383   8.3720
     8.8782   9.1782  10.0057  10.2504  10.8364  11.0662  11.3754  11.7501
    12.1851  12.3613  12.8654  13.5325  13.6548  14.2180  14.5943  15.0049
    15.1802  15.4982  15.6887  15.8345  17.2611  17.7242  18.2043  18.2607
    18.2635  19.1089  19.3871  20.6471  20.8636  21.4690  21.4887  22.2544
    22.5786  23.3535

          k = 0.5010 0.0578 0.0000 (  7957 PWs)   bands (ev):

   -13.5534 -13.1601  -6.6655  -6.3094  -4.9787  -4.5575  -4.0023  -2.8399
    -1.6281   1.3315   2.1877   2.3157   4.0568   6.3626   7.5762   7.6837
     8.6277   8.9006   9.3851   9.9983  10.5593  11.0660  11.1714  12.2338
    12.2952  13.0605  13.1724  13.6741  13.7875  14.2378  14.3696  14.8003
    15.5737  15.8133  16.1890  16.6783  17.3324  17.4598  18.1223  18.1372
    18.9989  19.3148  20.3350  20.6638  21.1317  21.2257  21.7566  22.2013
    22.8461  23.1666

          k = 0.4008-0.0001 0.0000 (  7915 PWs)   bands (ev):

   -14.0637 -13.4565  -6.4809  -5.5503  -4.9235  -4.6204  -3.5275  -2.3817
    -1.8951   0.9931   1.8602   2.0422   3.8777   6.6428   6.8438   7.6671
     7.9435   8.3618   9.1596   9.4749  10.3331  10.6627  10.8268  11.5559
    11.9576  12.8847  13.2271  13.8782  14.8573  15.5795  15.8169  15.9008
    16.2377  16.3185  16.8766  17.0472  17.1160  17.9177  18.2571  19.1359
    19.4860  19.6908  20.3470  20.9101  21.5942  21.6134  22.1677  22.7188
    22.9991  23.7326

          k = 0.3006-0.0579 0.0000 (  7922 PWs)   bands (ev):

   -14.6054 -13.7737  -6.3588  -5.0391  -4.8840  -4.0981  -3.0075  -2.2428
    -1.9148   1.0016   1.6138   1.8897   3.4332   5.8646   6.0231   7.0100
     7.9936   8.0844   8.7533   9.0741   9.7830  10.7099  11.2756  11.7521
    11.9941  12.4342  12.6311  14.0995  14.3799  15.7402  16.1715  16.6589
    16.7355  17.5091  17.7447  18.4167  18.7143  18.7756  18.9639  19.6111
    20.3973  20.6794  21.2054  21.7584  21.7853  22.2213  22.4058  22.9318
    23.2255  23.6079

          k =-0.4007-0.5783 0.0000 (  7979 PWs)   bands (ev):

   -13.2659 -12.9799  -6.7409  -6.2851  -5.2466  -4.7427  -4.3816  -3.2050
    -1.2290   1.0271   2.1086   2.7848   4.5287   6.2245   6.8465   8.3576
     9.4456  10.0736  10.7111  10.7563  11.3434  11.4609  11.6097  11.9785
    12.4622  12.5654  12.7206  12.9437  13.2631  13.6904  13.8028  13.9590
    14.6101  14.9106  15.7887  15.9403  16.3416  16.6718  17.7634  18.1834
    18.8506  19.0938  19.2139  19.6531  20.4458  21.7741  21.7800  22.7732
    22.8909  23.7015

          k = 0.5010-0.0579 0.0000 (  7957 PWs)   bands (ev):

   -13.5530 -13.1596  -6.6652  -6.3097  -4.9780  -4.5585  -4.0038  -2.8396
    -1.6276   1.3318   2.1875   2.3153   4.0558   6.3644   7.5752   7.6841
     8.6270   8.9003   9.3850   9.9981  10.5576  11.0677  11.1713  12.2348
    12.2991  13.0620  13.1770  13.6751  13.7883  14.2406  14.3713  14.7968
    15.5723  15.8089  16.1887  16.6792  17.3326  17.4597  18.1213  18.1341
    18.9968  19.3165  20.3352  20.6637  21.1293  21.2239  21.7562  22.1992
    22.8472  23.1671

          k = 0.4008-0.1157 0.0000 (  7940 PWs)   bands (ev):

   -13.9841 -13.4173  -6.6785  -5.7519  -5.1178  -4.3608  -2.9923  -2.6806
    -1.9183   1.1752   1.7809   2.4718   3.7023   6.5754   6.7653   7.0790
     7.9523   8.0191   9.3304   9.3333  10.3179  10.6961  10.9142  12.1953
    12.3862  13.0013  13.4840  13.9225  14.3224  14.9743  14.9856  15.6227
    16.1418  16.4399  17.3646  17.4226  17.9832  18.0520  18.7378  18.9175
    19.5913  19.9478  20.2886  20.6428  21.7152  21.7654  22.4467  22.5820
    22.9379  23.7247

          k = 0.5010-0.1736 0.0000 (  7972 PWs)   bands (ev):

   -13.5255 -13.1640  -7.0704  -6.3203  -5.3020  -4.4074  -3.0118  -2.8704
    -1.6337   1.5110   2.0948   3.0147   3.5064   5.5447   7.3835   7.5968
     8.3493   9.1062   9.3674   9.6318   9.9744  10.8834  10.9265  11.4848
    12.1671  12.4661  13.3680  13.4471  14.3787  14.6077  15.1471  15.5961
    15.9168  16.7939  17.2225  17.3286  17.8426  18.0376  18.2154  18.4215
    19.5931  19.8431  20.2901  20.3971  20.6387  20.8749  21.7976  22.0936
    22.7525  23.4218

     highest occupied, lowest unoccupied level (ev):    -1.2283    0.9931

!    total energy              =     -57.55769003 Ry
     Harris-Foulkes estimate   =     -57.55769003 Ry
     estimated scf accuracy    <          4.0E-12 Ry

     The total energy is the sum of the following terms:

     one-electron contribution =    -411.21879409 Ry
     hartree contribution      =     210.09210160 Ry
     xc contribution           =     -13.23170561 Ry
     ewald contribution        =     156.84386287 Ry
     Dispersion Correction     =      -0.04315479 Ry

     convergence has been achieved in  12 iterations

     Forces acting on atoms (cartesian axes, Ry/au):

     atom    1 type  1   force =    -0.00008312    0.00004800   -0.00000564
     atom    2 type  2   force =     0.00004154   -0.00002399   -0.00073794
     atom    3 type  2   force =     0.00004158   -0.00002401    0.00074359

     Total force =     0.001054     Total SCF correction =     0.000001


     Computing stress (Cartesian axis) and pressure

          total   stress  (Ry/bohr**3)                   (kbar)     P=       -0.56
  -0.00000109  -0.00000059  -0.00000000           -0.16       -0.09       -0.00
  -0.00000059  -0.00000177   0.00000000           -0.09       -0.26        0.00
  -0.00000000   0.00000000  -0.00000852           -0.00        0.00       -1.25


     Writing output data file ./out/1x1_MoS2.save/

     init_run     :     11.53s CPU     11.68s WALL (       2 calls)
     electrons    :   1234.71s CPU   1254.54s WALL (       7 calls)
     update_pot   :      3.62s CPU      3.65s WALL (       5 calls)
     forces       :      9.39s CPU      9.59s WALL (       7 calls)
     stress       :     16.58s CPU     17.10s WALL (       7 calls)

     Called by init_run:
     wfcinit      :      9.80s CPU      9.91s WALL (       2 calls)
     potinit      :      0.60s CPU      0.62s WALL (       2 calls)
     hinit0       :      0.45s CPU      0.45s WALL (       2 calls)

     Called by electrons:
     c_bands      :   1117.11s CPU   1134.87s WALL (      74 calls)
     sum_band     :    114.71s CPU    116.39s WALL (      74 calls)
     v_of_rho     :      0.88s CPU      0.93s WALL (      81 calls)
     mix_rho      :      0.86s CPU      0.93s WALL (      74 calls)

     Called by c_bands:
     init_us_2    :      4.17s CPU      4.26s WALL (    8528 calls)
     cegterg      :   1083.84s CPU   1100.81s WALL (    3848 calls)

     Called by sum_band:

     Called by *egterg:
     h_psi        :    630.65s CPU    641.32s WALL (   14570 calls)
     g_psi        :      0.95s CPU      0.97s WALL (   10618 calls)
     cdiaghg      :    138.46s CPU    139.21s WALL (   14206 calls)

     Called by h_psi:
     h_psi:calbec :     43.15s CPU     44.42s WALL (   14570 calls)
     vloc_psi     :    569.93s CPU    578.92s WALL (   14570 calls)
     add_vuspsi   :     14.67s CPU     14.93s WALL (   14570 calls)

     General routines
     calbec       :     56.17s CPU     57.74s WALL (   16390 calls)
     fft          :      1.85s CPU      2.07s WALL (     424 calls)
     ffts         :      0.27s CPU      0.28s WALL (     155 calls)
     fftw         :    639.09s CPU    649.03s WALL ( 1130628 calls)
     interpolate  :      0.51s CPU      0.54s WALL (      81 calls)

     Parallel routines
     fft_scatt_xy :     43.80s CPU     44.39s WALL ( 1131207 calls)
     fft_scatt_yz :    429.55s CPU    437.97s WALL ( 1131207 calls)

     PWSCF        :  21m17.69s CPU  21m39.02s WALL


   This run was terminated on:   3:10:30  14Apr2022            

=------------------------------------------------------------------------------=
   JOB DONE.
=------------------------------------------------------------------------------=
