
     Program PWSCF v.6.5Max starts on 24May2022 at 20:44:53 

     This program is part of the open-source Quantum ESPRESSO suite
     for quantum simulation of materials; please cite
         "P. Giannozzi et al., J. Phys.:Condens. Matter 21 395502 (2009);
         "P. Giannozzi et al., J. Phys.:Condens. Matter 29 465901 (2017);
          URL http://www.quantum-espresso.org", 
     in publications or presentations arising from this work. More details at
     http://www.quantum-espresso.org/quote

     Parallel version (MPI), running on    16 processors

     MPI processes distributed on     1 nodes
     R & G space division:  proc/nbgrp/npool/nimage =      16
     Waiting for input...
     Reading input from standard input
Warning: card &IONS ignored
Warning: card  / ignored
Warning: card &CELL ignored
Warning: card CELL_DYNAMICS='BFGS' ignored
Warning: card CELL_FACTOR=2.5 ignored
Warning: card CELL_DOFREE='2DXY' ignored
Warning: card / ignored

     Current dimensions of program PWSCF are:
     Max number of different atomic species (ntypx) = 10
     Max number of k-points (npk) =  40000
     Max angular momentum in pseudopotentials (lmaxx) =  3
               file Mo.pw-mt_fhi.UPF: wavefunction(s)  4f renormalized
               file S.pw-mt_fhi.UPF: wavefunction(s)  4f renormalized

     -------------------------------------------------
     Parameters for Dispersion (Grimme-D2) Correction:
     -------------------------------------------------
       atom      VdW radius       C_6     

        Mo         3.097        855.833
        S          3.180        193.230

     Subspace diagonalization in iterative solution of the eigenvalue problem:
     a serial algorithm will be used

     Message from routine setup:
     no reason to have ecutrho>4*ecutwfc

     Parallelization info
     --------------------
     sticks:   dense  smooth     PW     G-vecs:    dense   smooth      PW
     Min         781     312     85               138748    35106    5035
     Max         783     313     86               138753    35113    5044
     Sum       12507    4993   1369              2219997   561725   80633



     bravais-lattice index     =            0
     lattice parameter (alat)  =      17.5735  a.u.
     unit-cell volume          =    8944.6375 (a.u.)^3
     number of atoms/cell      =           26
     number of atomic types    =            2
     number of electrons       =       156.00
     number of Kohn-Sham states=          100
     kinetic-energy cutoff     =      60.0000  Ry
     charge density cutoff     =     600.0000  Ry
     convergence threshold     =      1.0E-08
     mixing beta               =       0.7000
     number of iterations used =            8  plain     mixing
     Exchange-correlation= SLA-PW
                           (   1   4   0   0   0   0   0)

     celldm(1)=  17.573519  celldm(2)=   0.000000  celldm(3)=   0.000000
     celldm(4)=   0.000000  celldm(5)=   0.000000  celldm(6)=   0.000000

     crystal axes: (cart. coord. in units of alat)
               a(1) = (   0.988692  -0.000007   0.000000 )  
               a(2) = (  -0.494352   0.856229   0.000000 )  
               a(3) = (   0.000000   0.000000   1.946870 )  

     reciprocal axes: (cart. coord. in units 2 pi/alat)
               b(1) = (  1.011441  0.583965 -0.000000 )  
               b(2) = (  0.000008  1.167916 -0.000000 )  
               b(3) = ( -0.000000 -0.000000  0.513645 )  


     PseudoPot. # 1 for Mo read from file:
     ./Mo.pw-mt_fhi.UPF
     MD5 check sum: 39557091c5c29ab518dcc42d2770f0a9
     Pseudo is Norm-conserving, Zval =  6.0
     Generated using FHI98PP, converted with fhi2upf.x v.5.0.1
     Using radial grid of  541 points,  3 beta functions with: 
                l(1) =   0
                l(2) =   2
                l(3) =   3

     PseudoPot. # 2 for S  read from file:
     ./S.pw-mt_fhi.UPF
     MD5 check sum: 498597b413bac406373b42162ed9f1a5
     Pseudo is Norm-conserving, Zval =  6.0
     Generated using FHI98PP, converted with fhi2upf.x v.5.0.1
     Using radial grid of  501 points,  3 beta functions with: 
                l(1) =   0
                l(2) =   1
                l(3) =   3

     atomic species   valence    mass     pseudopotential
        Mo             6.00    95.95000     Mo( 1.00)
        S              6.00    32.06500     S ( 1.00)

     No symmetry found



   Cartesian axes

     site n.     atom                  positions (alat units)
         1           Mo  tau(   1) = (   0.1647064   0.0967583   1.1993646  )
         2           S   tau(   2) = (   0.0042196   0.1954886   1.3667794  )
         3           S   tau(   3) = (  -0.0022711   0.1911741   1.0332113  )
         4           Mo  tau(   4) = (   0.0049277   0.3825437   1.1964482  )
         5           S   tau(   5) = (  -0.1574222   0.4754597   1.3667727  )
         6           S   tau(   6) = (  -0.1643937   0.4719940   1.0331982  )
         7           Mo  tau(   7) = (  -0.1626858   0.6638053   1.1993550  )
         8           S   tau(   8) = (  -0.3296430   0.7601981   1.3650009  )
         9           S   tau(   9) = (  -0.3296502   0.7602023   1.0338118  )
        10           Mo  tau(  10) = (   0.4943245   0.0942675   1.2033826  )
        11           S   tau(  11) = (   0.3251986   0.1954752   1.3667824  )
        12           S   tau(  12) = (   0.3316793   0.1911732   1.0332058  )
        13           Mo  tau(  13) = (   0.3244913   0.3825334   1.1964554  )
        14           S   tau(  14) = (   0.1647169   0.4747793   1.0279647  )
        15           Mo  tau(  15) = (   0.1647006   0.6592786   1.1964482  )
        16           S   tau(  16) = (   0.0030581   0.7534197   1.3667726  )
        17           S   tau(  17) = (   0.0025738   0.7611900   1.0331982  )
        18           Mo  tau(  18) = (   0.8237765   0.0942710   1.2033927  )
        19           S   tau(  19) = (   0.6590447   0.1893790   1.3713343  )
        20           S   tau(  20) = (   0.6590542   0.1893735   1.0377749  )
        21           Mo  tau(  21) = (   0.6590535   0.3795866   1.2033827  )
        22           S   tau(  22) = (   0.4868421   0.4754501   1.3667824  )
        23           S   tau(  23) = (   0.4938082   0.4719886   1.0332059  )
        24           Mo  tau(  24) = (   0.4920874   0.6637989   1.1993646  )
        25           S   tau(  25) = (   0.3263410   0.7534193   1.3667794  )
        26           S   tau(  26) = (   0.3268321   0.7611977   1.0332113  )

     number of k points=    52
                       cart. coord. in units 2pi/alat
        k(    1) = (   0.0000000   0.0000000   0.0000000), wk =   0.0200000
        k(    2) = (   0.0000008   0.1167916   0.0000000), wk =   0.0400000
        k(    3) = (   0.0000016   0.2335832   0.0000000), wk =   0.0400000
        k(    4) = (   0.0000025   0.3503748   0.0000000), wk =   0.0400000
        k(    5) = (   0.0000033   0.4671665   0.0000000), wk =   0.0400000
        k(    6) = (  -0.0000041  -0.5839581   0.0000000), wk =   0.0200000
        k(    7) = (   0.1011449   0.1751881   0.0000000), wk =   0.0400000
        k(    8) = (   0.1011457   0.2919798   0.0000000), wk =   0.0400000
        k(    9) = (   0.1011466   0.4087714   0.0000000), wk =   0.0400000
        k(   10) = (   0.1011474   0.5255630   0.0000000), wk =   0.0400000
        k(   11) = (   0.1011400  -0.5255616   0.0000000), wk =   0.0400000
        k(   12) = (   0.1011408  -0.4087699   0.0000000), wk =   0.0400000
        k(   13) = (   0.1011416  -0.2919783   0.0000000), wk =   0.0400000
        k(   14) = (   0.1011424  -0.1751867   0.0000000), wk =   0.0400000
        k(   15) = (   0.1011433  -0.0583951   0.0000000), wk =   0.0400000
        k(   16) = (   0.2022898   0.3503763   0.0000000), wk =   0.0400000
        k(   17) = (   0.2022907   0.4671679   0.0000000), wk =   0.0400000
        k(   18) = (   0.2022915   0.5839595   0.0000000), wk =   0.0400000
        k(   19) = (   0.2022841  -0.4671650   0.0000000), wk =   0.0400000
        k(   20) = (   0.2022849  -0.3503734   0.0000000), wk =   0.0400000
        k(   21) = (   0.2022857  -0.2335818   0.0000000), wk =   0.0400000
        k(   22) = (   0.2022865  -0.1167902   0.0000000), wk =   0.0400000
        k(   23) = (   0.3034348   0.5255644   0.0000000), wk =   0.0400000
        k(   24) = (   0.3034356   0.6423560   0.0000000), wk =   0.0400000
        k(   25) = (   0.3034282  -0.4087685   0.0000000), wk =   0.0400000
        k(   26) = (   0.3034290  -0.2919769   0.0000000), wk =   0.0400000
        k(   27) = (   0.3034298  -0.1751853   0.0000000), wk =   0.0400000
        k(   28) = (   0.4045797   0.7007525   0.0000000), wk =   0.0400000
        k(   29) = (   0.4045723  -0.3503720   0.0000000), wk =   0.0400000
        k(   30) = (   0.4045731  -0.2335804   0.0000000), wk =   0.0400000
        k(   31) = (  -0.5057246  -0.8759407   0.0000000), wk =   0.0200000
        k(   32) = (  -0.1011441  -0.0583965   0.0000000), wk =   0.0400000
        k(   33) = (  -0.2022882  -0.1167930   0.0000000), wk =   0.0400000
        k(   34) = (  -0.3034323  -0.1751896   0.0000000), wk =   0.0400000
        k(   35) = (  -0.4045764  -0.2335861   0.0000000), wk =   0.0400000
        k(   36) = (   0.5057205   0.2919826   0.0000000), wk =   0.0200000
        k(   37) = (  -0.2022890  -0.2335847   0.0000000), wk =   0.0400000
        k(   38) = (  -0.3034331  -0.2919812   0.0000000), wk =   0.0400000
        k(   39) = (  -0.4045772  -0.3503777   0.0000000), wk =   0.0400000
        k(   40) = (   0.5057197   0.1751910   0.0000000), wk =   0.0400000
        k(   41) = (   0.4045756   0.1167945   0.0000000), wk =   0.0400000
        k(   42) = (   0.3034315   0.0583979   0.0000000), wk =   0.0400000
        k(   43) = (   0.2022874   0.0000014   0.0000000), wk =   0.0400000
        k(   44) = (  -0.3034339  -0.4087728   0.0000000), wk =   0.0400000
        k(   45) = (  -0.4045780  -0.4671693   0.0000000), wk =   0.0400000
        k(   46) = (   0.5057188   0.0583994   0.0000000), wk =   0.0400000
        k(   47) = (   0.4045747   0.0000029   0.0000000), wk =   0.0400000
        k(   48) = (   0.3034306  -0.0583937   0.0000000), wk =   0.0400000
        k(   49) = (  -0.4045789  -0.5839609   0.0000000), wk =   0.0400000
        k(   50) = (   0.5057180  -0.0583922   0.0000000), wk =   0.0400000
        k(   51) = (   0.4045739  -0.1167888   0.0000000), wk =   0.0400000
        k(   52) = (   0.5057172  -0.1751839   0.0000000), wk =   0.0400000

     Dense  grid:  2219997 G-vectors     FFT dimensions: ( 135, 135, 270)

     Smooth grid:   561725 G-vectors     FFT dimensions: (  90,  90, 180)

     Estimated max dynamical RAM per process >     523.28 MB

     Estimated total dynamical RAM >       8.18 GB

     Initial potential from superposition of free atoms

     starting charge  155.98484, renormalised to  156.00000

     negative rho (up, down):  1.431E-02 0.000E+00
     Starting wfcs are  416 randomized atomic wfcs

     total cpu time spent up to now is     1670.8 secs

     Self-consistent Calculation

     iteration #  1     ecut=    60.00 Ry     beta= 0.70
     Davidson diagonalization with overlap
     ethr =  1.00E-02,  avg # of iterations =  2.0

     negative rho (up, down):  3.844E-03 0.000E+00

     total cpu time spent up to now is     2536.1 secs

     total energy              =    -489.32134143 Ry
     Harris-Foulkes estimate   =    -499.16639544 Ry
     estimated scf accuracy    <      11.91430971 Ry

     iteration #  2     ecut=    60.00 Ry     beta= 0.70
     Davidson diagonalization with overlap
     ethr =  7.64E-03,  avg # of iterations = 10.1

     total cpu time spent up to now is     4110.8 secs

     total energy              =    -471.80514027 Ry
     Harris-Foulkes estimate   =    -517.74661486 Ry
     estimated scf accuracy    <     209.91974496 Ry

     iteration #  3     ecut=    60.00 Ry     beta= 0.70
     Davidson diagonalization with overlap
     ethr =  7.64E-03,  avg # of iterations =  5.3

     total cpu time spent up to now is     5547.3 secs

     total energy              =    -496.80515944 Ry
     Harris-Foulkes estimate   =    -498.15702128 Ry
     estimated scf accuracy    <       3.64512411 Ry

     iteration #  4     ecut=    60.00 Ry     beta= 0.70
     Davidson diagonalization with overlap
     ethr =  2.34E-03,  avg # of iterations =  5.4

     total cpu time spent up to now is     6462.7 secs

     total energy              =    -497.29935920 Ry
     Harris-Foulkes estimate   =    -497.49975698 Ry
     estimated scf accuracy    <       0.64312833 Ry

     iteration #  5     ecut=    60.00 Ry     beta= 0.70
     Davidson diagonalization with overlap
     ethr =  4.12E-04,  avg # of iterations =  5.3

     total cpu time spent up to now is     7352.2 secs

     total energy              =    -497.31015875 Ry
     Harris-Foulkes estimate   =    -497.49575275 Ry
     estimated scf accuracy    <       0.89250487 Ry

     iteration #  6     ecut=    60.00 Ry     beta= 0.70
     Davidson diagonalization with overlap
     ethr =  4.12E-04,  avg # of iterations =  2.0

     total cpu time spent up to now is     7948.1 secs

     total energy              =    -497.30226086 Ry
     Harris-Foulkes estimate   =    -497.36958611 Ry
     estimated scf accuracy    <       0.20410361 Ry

     iteration #  7     ecut=    60.00 Ry     beta= 0.70
     Davidson diagonalization with overlap
     ethr =  1.31E-04,  avg # of iterations =  2.8

     total cpu time spent up to now is     8595.7 secs

     total energy              =    -497.29808355 Ry
     Harris-Foulkes estimate   =    -497.31979657 Ry
     estimated scf accuracy    <       0.09977967 Ry

     iteration #  8     ecut=    60.00 Ry     beta= 0.70
     Davidson diagonalization with overlap
     ethr =  6.40E-05,  avg # of iterations =  4.4

     total cpu time spent up to now is     9221.5 secs

     total energy              =    -497.28953373 Ry
     Harris-Foulkes estimate   =    -497.30402169 Ry
     estimated scf accuracy    <       0.05958490 Ry

     iteration #  9     ecut=    60.00 Ry     beta= 0.70
     Davidson diagonalization with overlap
     ethr =  3.82E-05,  avg # of iterations =  1.3

     total cpu time spent up to now is     9808.2 secs

     total energy              =    -497.28157115 Ry
     Harris-Foulkes estimate   =    -497.29148590 Ry
     estimated scf accuracy    <       0.02959202 Ry

     iteration # 10     ecut=    60.00 Ry     beta= 0.70
     Davidson diagonalization with overlap
     ethr =  1.90E-05,  avg # of iterations =  2.5

     total cpu time spent up to now is    10414.2 secs

     total energy              =    -497.28068855 Ry
     Harris-Foulkes estimate   =    -497.28320599 Ry
     estimated scf accuracy    <       0.00708070 Ry

     iteration # 11     ecut=    60.00 Ry     beta= 0.70
     Davidson diagonalization with overlap
     ethr =  4.54E-06,  avg # of iterations =  7.3

     total cpu time spent up to now is    11485.8 secs

     total energy              =    -497.28194121 Ry
     Harris-Foulkes estimate   =    -497.28243645 Ry
     estimated scf accuracy    <       0.00304100 Ry

     iteration # 12     ecut=    60.00 Ry     beta= 0.70
     Davidson diagonalization with overlap
     ethr =  1.95E-06,  avg # of iterations =  1.2

     total cpu time spent up to now is    12085.2 secs

     total energy              =    -497.28216790 Ry
     Harris-Foulkes estimate   =    -497.28223850 Ry
     estimated scf accuracy    <       0.00033722 Ry

     iteration # 13     ecut=    60.00 Ry     beta= 0.70
     Davidson diagonalization with overlap
     ethr =  2.16E-07,  avg # of iterations =  3.0

     total cpu time spent up to now is    12858.5 secs

     total energy              =    -497.28221810 Ry
     Harris-Foulkes estimate   =    -497.28226177 Ry
     estimated scf accuracy    <       0.00020992 Ry

     iteration # 14     ecut=    60.00 Ry     beta= 0.70
     Davidson diagonalization with overlap
     ethr =  1.35E-07,  avg # of iterations =  1.9

     total cpu time spent up to now is    13461.1 secs

     total energy              =    -497.28224101 Ry
     Harris-Foulkes estimate   =    -497.28224300 Ry
     estimated scf accuracy    <       0.00001847 Ry

     iteration # 15     ecut=    60.00 Ry     beta= 0.70
     Davidson diagonalization with overlap
     ethr =  1.18E-08,  avg # of iterations =  3.0

     total cpu time spent up to now is    14232.6 secs

     total energy              =    -497.28224560 Ry
     Harris-Foulkes estimate   =    -497.28224530 Ry
     estimated scf accuracy    <       0.00000206 Ry

     iteration # 16     ecut=    60.00 Ry     beta= 0.70
     Davidson diagonalization with overlap
     ethr =  1.32E-09,  avg # of iterations =  3.0

     total cpu time spent up to now is    15093.5 secs

     total energy              =    -497.28224586 Ry
     Harris-Foulkes estimate   =    -497.28224664 Ry
     estimated scf accuracy    <       0.00000355 Ry

     iteration # 17     ecut=    60.00 Ry     beta= 0.70
     Davidson diagonalization with overlap
     ethr =  1.32E-09,  avg # of iterations =  2.3

     total cpu time spent up to now is    15825.7 secs

     total energy              =    -497.28224630 Ry
     Harris-Foulkes estimate   =    -497.28224659 Ry
     estimated scf accuracy    <       0.00000145 Ry

     iteration # 18     ecut=    60.00 Ry     beta= 0.70
     Davidson diagonalization with overlap
     ethr =  9.30E-10,  avg # of iterations =  2.0

     total cpu time spent up to now is    16449.3 secs

     total energy              =    -497.28224646 Ry
     Harris-Foulkes estimate   =    -497.28224655 Ry
     estimated scf accuracy    <       0.00000035 Ry

     iteration # 19     ecut=    60.00 Ry     beta= 0.70
     Davidson diagonalization with overlap
     ethr =  2.22E-10,  avg # of iterations =  2.0

     total cpu time spent up to now is    17164.8 secs

     total energy              =    -497.28224652 Ry
     Harris-Foulkes estimate   =    -497.28224655 Ry
     estimated scf accuracy    <       0.00000012 Ry

     iteration # 20     ecut=    60.00 Ry     beta= 0.70
     Davidson diagonalization with overlap
     ethr =  7.98E-11,  avg # of iterations =  2.2

     total cpu time spent up to now is    17784.8 secs

     total energy              =    -497.28224654 Ry
     Harris-Foulkes estimate   =    -497.28224655 Ry
     estimated scf accuracy    <       0.00000003 Ry

     iteration # 21     ecut=    60.00 Ry     beta= 0.70
     Davidson diagonalization with overlap
     ethr =  2.19E-11,  avg # of iterations =  2.1

     total cpu time spent up to now is    18091.0 secs

     total energy              =    -497.28224654 Ry
     Harris-Foulkes estimate   =    -497.28224654 Ry
     estimated scf accuracy    <       0.00000002 Ry

     iteration # 22     ecut=    60.00 Ry     beta= 0.70
     Davidson diagonalization with overlap
     ethr =  9.98E-12,  avg # of iterations =  2.0

     total cpu time spent up to now is    18359.5 secs

     End of self-consistent calculation

          k = 0.0000 0.0000 0.0000 ( 70261 PWs)   bands (ev):

   -15.6195 -14.4355 -14.2844 -14.2843 -14.2258 -14.2096 -14.2095 -13.9440
   -13.6688 -13.6686 -13.5907 -13.5678 -13.5677 -13.3315 -13.2567 -13.0895
   -12.9897  -7.0699  -6.8736  -6.8736  -6.8057  -6.7448  -6.7448  -6.6267
    -6.5580  -6.5579  -5.9941  -5.9939  -5.8091  -5.6944  -5.6944  -5.6667
    -5.6505  -5.6504  -5.4071  -5.4069  -5.3312  -5.2421  -5.2421  -5.0549
    -4.9528  -4.9527  -4.8566  -4.4433  -4.3608  -4.3607  -4.0196  -3.9474
    -3.9473  -3.9431  -3.7655  -3.7653  -3.4787  -3.3871  -3.3096  -3.3095
    -3.1577  -2.9799  -2.9624  -2.9623  -2.8369  -2.8369  -2.4862  -2.4860
    -2.4386  -2.4072  -2.4071  -2.3811  -2.3041  -2.2971  -2.2970  -2.2677
    -2.1493  -2.1492  -1.5371  -1.1892  -1.1892  -1.0925   0.1786   0.1788
     0.9788   0.9788   1.3409   1.3734   1.3734   1.3822   1.4224   1.4225
     1.5603   1.5603   1.5950   1.6496   1.8480   1.8481   2.0135   2.0136
     2.2221   2.2221   2.4188   2.5937

          k = 0.0000 0.1168 0.0000 ( 70211 PWs)   bands (ev):

   -15.6026 -14.4550 -14.4096 -14.3540 -14.2769 -14.1249 -14.0507 -13.9049
   -13.7153 -13.6938 -13.6296 -13.5329 -13.4826 -13.3327 -13.2718 -13.0990
   -13.0006  -7.0525  -6.9277  -6.8611  -6.8602  -6.7640  -6.7295  -6.6134
    -6.5325  -6.4810  -6.1434  -6.1319  -5.9100  -5.7596  -5.6994  -5.5564
    -5.5424  -5.4901  -5.3563  -5.3528  -5.3143  -5.2370  -5.2367  -5.0639
    -4.9380  -4.9168  -4.8228  -4.4708  -4.3892  -4.3413  -4.1095  -4.0040
    -3.9875  -3.8996  -3.8106  -3.7473  -3.4807  -3.3986  -3.3888  -3.2707
    -3.1234  -3.0168  -2.9301  -2.9268  -2.7984  -2.7819  -2.5970  -2.5721
    -2.5442  -2.4774  -2.4350  -2.3131  -2.3053  -2.2497  -2.2337  -2.1948
    -2.1017  -2.0523  -1.5326  -1.2244  -1.2238  -1.1065   0.1898   0.1918
     1.0160   1.0193   1.2346   1.2800   1.3639   1.3856   1.4390   1.5051
     1.5817   1.5907   1.6850   1.6947   1.8519   1.8694   2.0175   2.0414
     2.1805   2.2235   2.3454   2.5264

          k = 0.0000 0.2336 0.0000 ( 70221 PWs)   bands (ev):

   -15.5522 -14.6472 -14.4329 -14.4094 -14.3079 -14.0019 -13.9179 -13.8705
   -13.7496 -13.7315 -13.6272 -13.4662 -13.3976 -13.3340 -13.3159 -13.1250
   -13.0321  -7.0856  -6.9974  -6.8695  -6.8553  -6.7616  -6.7366  -6.5432
    -6.4974  -6.4184  -6.3430  -6.3069  -6.0549  -5.8408  -5.7787  -5.4416
    -5.3678  -5.3383  -5.2908  -5.2621  -5.2184  -5.2087  -5.1608  -5.0608
    -4.9078  -4.8014  -4.6879  -4.5023  -4.4572  -4.3195  -4.2434  -4.1261
    -4.0945  -3.9344  -3.8964  -3.6669  -3.5680  -3.4884  -3.3884  -3.1931
    -3.1158  -3.0243  -2.8949  -2.8630  -2.8015  -2.7868  -2.7118  -2.6875
    -2.6668  -2.6039  -2.4574  -2.2621  -2.2323  -2.1450  -2.1139  -2.0922
    -1.9906  -1.9305  -1.5252  -1.3146  -1.3100  -1.1446   0.2167   0.2212
     1.0888   1.0934   1.1337   1.2150   1.3429   1.3799   1.4197   1.5820
     1.6331   1.7271   1.7952   1.8068   1.8696   1.9184   1.9952   2.1098
     2.1142   2.2082   2.2258   2.3902

          k = 0.0000 0.3504 0.0000 ( 70237 PWs)   bands (ev):

   -15.4698 -14.8471 -14.4924 -14.4128 -14.3014 -13.9644 -13.8758 -13.8053
   -13.7573 -13.6831 -13.5967 -13.4045 -13.3723 -13.3675 -13.3043 -13.1602
   -13.0816  -7.2217  -6.9351  -6.8801  -6.8606  -6.7213  -6.7194  -6.5332
    -6.5136  -6.4988  -6.3759  -6.3674  -6.1795  -5.9106  -5.8773  -5.3957
    -5.3105  -5.2407  -5.2249  -5.2193  -5.1618  -5.1417  -4.9905  -4.9546
    -4.8620  -4.6622  -4.5449  -4.4718  -4.4629  -4.3377  -4.3141  -4.2355
    -4.1987  -4.1059  -3.9201  -3.7615  -3.5507  -3.5410  -3.3406  -3.1292
    -3.1156  -3.0429  -2.9813  -2.9686  -2.9481  -2.8842  -2.7983  -2.7843
    -2.6739  -2.5420  -2.3773  -2.1975  -2.1405  -2.0654  -2.0201  -1.9666
    -1.8564  -1.8327  -1.5382  -1.4269  -1.4026  -1.1990   0.2440   0.2495
     1.0342   1.0774   1.1809   1.2768   1.3744   1.3849   1.4502   1.6419
     1.6925   1.7540   1.8607   1.8830   1.9382   1.9789   1.9836   2.0316
     2.0932   2.1835   2.2635   2.3139

          k = 0.0000 0.4672 0.0000 ( 70181 PWs)   bands (ev):

   -15.3592 -15.0310 -14.5290 -14.4289 -14.2536 -14.0603 -13.8042 -13.7341
   -13.7172 -13.6376 -13.5566 -13.4855 -13.3782 -13.3066 -13.2576 -13.1942
   -13.1441  -7.3143  -6.9050  -6.8929  -6.7839  -6.7500  -6.7467  -6.5653
    -6.5374  -6.4758  -6.3994  -6.3651  -6.2535  -5.9753  -5.9583  -5.4109
    -5.2649  -5.2057  -5.1849  -5.1702  -5.1235  -5.0851  -4.8578  -4.7988
    -4.7935  -4.6034  -4.5719  -4.4715  -4.4681  -4.3905  -4.3557  -4.2687
    -4.1132  -4.0978  -3.9393  -3.8848  -3.6107  -3.4181  -3.2964  -3.2676
    -3.2066  -3.1294  -3.1009  -3.0490  -2.9905  -2.9778  -2.9005  -2.7525
    -2.6418  -2.4828  -2.3075  -2.1271  -2.0786  -1.9973  -1.9782  -1.8385
    -1.7561  -1.7235  -1.5988  -1.5308  -1.4569  -1.2562   0.2606   0.2675
     0.9847   1.0483   1.2386   1.3530   1.3993   1.4387   1.4937   1.6450
     1.6822   1.7408   1.8274   1.9007   1.9087   1.9682   2.0113   2.0957
     2.1082   2.2223   2.3020   2.3769

          k =-0.0000-0.5840 0.0000 ( 70188 PWs)   bands (ev):

   -15.2598 -15.1552 -14.5413 -14.4361 -14.2105 -14.1188 -13.8029 -13.7140
   -13.6175 -13.6017 -13.5801 -13.5567 -13.3826 -13.2487 -13.2303 -13.2175
   -13.1970  -7.3469  -6.8930  -6.8863  -6.8047  -6.7754  -6.6923  -6.6094
    -6.5314  -6.4351  -6.4136  -6.3832  -6.2680  -6.0230  -5.9753  -5.4202
    -5.2469  -5.1963  -5.1790  -5.1582  -5.1026  -5.0538  -4.8090  -4.7573
    -4.6632  -4.6241  -4.5666  -4.4866  -4.4716  -4.4671  -4.4526  -4.2908
    -4.0436  -4.0343  -3.9867  -3.7060  -3.5881  -3.5298  -3.4409  -3.2912
    -3.2202  -3.1352  -3.1315  -3.0823  -3.0507  -2.9705  -2.9206  -2.7425
    -2.6284  -2.4674  -2.2808  -2.0957  -2.0609  -1.9656  -1.9645  -1.7650
    -1.7134  -1.6925  -1.6145  -1.5857  -1.4868  -1.2835   0.2658   0.2737
     0.9678   1.0389   1.2712   1.3899   1.4108   1.4649   1.4905   1.5969
     1.6966   1.7604   1.8118   1.8758   1.8794   1.9355   2.0097   2.1602
     2.1893   2.2552   2.3365   2.3489

          k = 0.1011 0.1752 0.0000 ( 70219 PWs)   bands (ev):

   -15.5689 -14.5570 -14.5112 -14.3858 -14.2254 -14.1025 -13.9189 -13.8600
   -13.7805 -13.7132 -13.6154 -13.5000 -13.4112 -13.3352 -13.3009 -13.1167
   -13.0217  -7.0270  -7.0187  -6.9256  -6.8129  -6.7778  -6.6901  -6.6128
    -6.4887  -6.4211  -6.2855  -6.2802  -6.0159  -5.8433  -5.6917  -5.5531
    -5.3826  -5.3394  -5.3111  -5.2767  -5.2455  -5.2101  -5.2072  -5.0711
    -4.9027  -4.8638  -4.7309  -4.4977  -4.4340  -4.3243  -4.2032  -4.1446
    -3.9865  -3.9438  -3.8365  -3.7320  -3.5183  -3.4692  -3.4023  -3.2236
    -3.1006  -3.0342  -2.9295  -2.8279  -2.7973  -2.7475  -2.7231  -2.7061
    -2.5985  -2.4975  -2.4632  -2.3853  -2.2077  -2.1841  -2.1628  -2.0937
    -2.0143  -1.9693  -1.5261  -1.2983  -1.2726  -1.1322   0.1999   0.2219
     1.0756   1.0765   1.1608   1.2178   1.3078   1.3920   1.4642   1.5558
     1.5901   1.7108   1.7624   1.7760   1.8590   1.9027   2.0110   2.0902
     2.1289   2.2048   2.2628   2.4203

          k = 0.1011 0.2920 0.0000 ( 70222 PWs)   bands (ev):

   -15.5025 -14.7426 -14.5957 -14.3543 -14.2294 -14.0099 -13.9035 -13.8445
   -13.7633 -13.6688 -13.5967 -13.4554 -13.3609 -13.3437 -13.3237 -13.1475
   -13.0615  -7.1538  -7.0093  -6.9244  -6.7829  -6.7347  -6.6947  -6.5852
    -6.4800  -6.4599  -6.4046  -6.3408  -6.1377  -5.9223  -5.7532  -5.4933
    -5.3563  -5.3059  -5.2364  -5.1898  -5.1428  -5.0983  -5.0618  -5.0297
    -4.8547  -4.7332  -4.6070  -4.5004  -4.4641  -4.3507  -4.2937  -4.2362
    -4.0917  -4.0258  -3.8897  -3.6930  -3.6419  -3.5127  -3.3834  -3.1555
    -3.1046  -3.0402  -3.0015  -2.9359  -2.8948  -2.7831  -2.7580  -2.7109
    -2.6128  -2.5996  -2.4032  -2.3423  -2.1327  -2.1033  -2.0365  -1.9912
    -1.9034  -1.8723  -1.5250  -1.4138  -1.3468  -1.1772   0.2101   0.2672
     1.0709   1.1011   1.1585   1.2069   1.3191   1.4087   1.4868   1.6050
     1.6526   1.7924   1.8462   1.8696   1.9109   1.9401   1.9581   2.0544
     2.1328   2.1681   2.2609   2.3142

          k = 0.1011 0.4088 0.0000 ( 70206 PWs)   bands (ev):

   -15.4055 -14.9330 -14.6471 -14.3141 -14.2445 -14.0105 -13.8786 -13.8439
   -13.6694 -13.6207 -13.5688 -13.4609 -13.3869 -13.3334 -13.2681 -13.1831
   -13.1151  -7.2645  -7.0168  -6.8419  -6.7996  -6.7599  -6.6741  -6.5767
    -6.5284  -6.4816  -6.4284  -6.3380  -6.2312  -5.9805  -5.8573  -5.4330
    -5.3570  -5.2954  -5.2007  -5.1372  -5.0843  -5.0313  -4.9291  -4.8639
    -4.7746  -4.6246  -4.5763  -4.5153  -4.4523  -4.4138  -4.2942  -4.2300
    -4.1473  -4.0835  -3.9215  -3.8549  -3.6070  -3.4921  -3.3637  -3.2301
    -3.1358  -3.1081  -3.0864  -3.0196  -2.9582  -2.9126  -2.8640  -2.7199
    -2.6439  -2.5170  -2.3064  -2.2659  -2.0666  -2.0364  -1.9219  -1.8932
    -1.8044  -1.7684  -1.5649  -1.5182  -1.4133  -1.2320   0.2153   0.3059
     1.0131   1.0769   1.2108   1.2509   1.3984   1.4486   1.5071   1.6471
     1.6903   1.7382   1.8334   1.8940   1.9205   1.9877   2.0307   2.0476
     2.0714   2.1905   2.2555   2.3593

          k = 0.1011 0.5256 0.0000 ( 70167 PWs)   bands (ev):

   -15.2864 -15.1006 -14.6730 -14.3001 -14.2152 -14.0940 -13.8652 -13.7376
   -13.6427 -13.5879 -13.5637 -13.5192 -13.3797 -13.2960 -13.2233 -13.2131
   -13.1727  -7.3258  -6.9938  -6.8979  -6.7654  -6.7215  -6.6996  -6.5776
    -6.5570  -6.4691  -6.4138  -6.3422  -6.2710  -6.0199  -5.9402  -5.4270
    -5.3306  -5.2901  -5.1802  -5.0987  -5.0710  -4.9825  -4.8602  -4.7321
    -4.6806  -4.6237  -4.5914  -4.5321  -4.4654  -4.4319  -4.3543  -4.2491
    -4.1235  -4.0253  -3.9663  -3.7939  -3.6085  -3.5016  -3.3564  -3.2800
    -3.2549  -3.1640  -3.1296  -3.0989  -3.0706  -2.9389  -2.9071  -2.7120
    -2.6358  -2.4760  -2.2542  -2.2054  -2.0367  -1.9898  -1.8747  -1.7945
    -1.7305  -1.6914  -1.6268  -1.5798  -1.4598  -1.2744   0.2168   0.3267
     0.9794   1.0684   1.2495   1.3089   1.4320   1.4801   1.5111   1.6099
     1.6868   1.7606   1.7963   1.8700   1.8770   1.9437   2.0310   2.1392
     2.1666   2.2306   2.2819   2.3549

          k = 0.1011-0.5256 0.0000 ( 70167 PWs)   bands (ev):

   -15.2864 -15.1006 -14.6730 -14.3001 -14.2153 -14.0940 -13.8652 -13.7376
   -13.6427 -13.5880 -13.5637 -13.5192 -13.3796 -13.2960 -13.2233 -13.2131
   -13.1726  -7.3258  -6.9938  -6.8980  -6.7654  -6.7215  -6.6996  -6.5777
    -6.5570  -6.4691  -6.4137  -6.3422  -6.2710  -6.0200  -5.9401  -5.4270
    -5.3306  -5.2901  -5.1802  -5.0987  -5.0711  -4.9826  -4.8602  -4.7321
    -4.6805  -4.6237  -4.5915  -4.5321  -4.4654  -4.4319  -4.3543  -4.2491
    -4.1234  -4.0254  -3.9663  -3.7938  -3.6085  -3.5016  -3.3564  -3.2799
    -3.2549  -3.1640  -3.1296  -3.0989  -3.0706  -2.9389  -2.9071  -2.7120
    -2.6359  -2.4760  -2.2541  -2.2054  -2.0367  -1.9898  -1.8747  -1.7945
    -1.7305  -1.6915  -1.6267  -1.5798  -1.4598  -1.2744   0.2168   0.3267
     0.9793   1.0684   1.2494   1.3089   1.4321   1.4801   1.5111   1.6099
     1.6868   1.7606   1.7963   1.8700   1.8770   1.9437   2.0310   2.1392
     2.1665   2.2306   2.2819   2.3551

          k = 0.1011-0.4088 0.0000 ( 70206 PWs)   bands (ev):

   -15.4055 -14.9330 -14.6472 -14.3141 -14.2445 -14.0105 -13.8785 -13.8439
   -13.6695 -13.6207 -13.5689 -13.4608 -13.3869 -13.3335 -13.2681 -13.1831
   -13.1151  -7.2644  -7.0168  -6.8419  -6.7997  -6.7600  -6.6741  -6.5766
    -6.5284  -6.4815  -6.4284  -6.3379  -6.2312  -5.9806  -5.8572  -5.4330
    -5.3570  -5.2954  -5.2007  -5.1371  -5.0843  -5.0313  -4.9291  -4.8638
    -4.7746  -4.6246  -4.5763  -4.5153  -4.4523  -4.4138  -4.2942  -4.2300
    -4.1473  -4.0836  -3.9215  -3.8550  -3.6070  -3.4921  -3.3637  -3.2301
    -3.1358  -3.1081  -3.0863  -3.0196  -2.9581  -2.9126  -2.8640  -2.7199
    -2.6439  -2.5170  -2.3063  -2.2659  -2.0666  -2.0364  -1.9219  -1.8932
    -1.8044  -1.7684  -1.5649  -1.5182  -1.4133  -1.2320   0.2153   0.3059
     1.0131   1.0769   1.2108   1.2509   1.3984   1.4487   1.5071   1.6470
     1.6904   1.7381   1.8334   1.8941   1.9205   1.9877   2.0307   2.0476
     2.0713   2.1905   2.2555   2.3593

          k = 0.1011-0.2920 0.0000 ( 70222 PWs)   bands (ev):

   -15.5025 -14.7426 -14.5958 -14.3542 -14.2294 -14.0099 -13.9035 -13.8445
   -13.7634 -13.6688 -13.5967 -13.4554 -13.3610 -13.3437 -13.3237 -13.1476
   -13.0615  -7.1538  -7.0093  -6.9244  -6.7830  -6.7347  -6.6947  -6.5852
    -6.4799  -6.4598  -6.4046  -6.3407  -6.1376  -5.9224  -5.7532  -5.4932
    -5.3563  -5.3059  -5.2365  -5.1898  -5.1428  -5.0983  -5.0618  -5.0297
    -4.8547  -4.7331  -4.6071  -4.5004  -4.4641  -4.3508  -4.2937  -4.2362
    -4.0917  -4.0258  -3.8896  -3.6930  -3.6419  -3.5127  -3.3834  -3.1555
    -3.1046  -3.0402  -3.0015  -2.9358  -2.8949  -2.7831  -2.7580  -2.7109
    -2.6128  -2.5996  -2.4031  -2.3423  -2.1326  -2.1033  -2.0364  -1.9913
    -1.9034  -1.8723  -1.5250  -1.4138  -1.3468  -1.1772   0.2101   0.2672
     1.0709   1.1011   1.1584   1.2069   1.3191   1.4087   1.4868   1.6051
     1.6526   1.7923   1.8462   1.8696   1.9108   1.9401   1.9580   2.0544
     2.1328   2.1681   2.2609   2.3142

          k = 0.1011-0.1752 0.0000 ( 70219 PWs)   bands (ev):

   -15.5689 -14.5569 -14.5112 -14.3858 -14.2253 -14.1025 -13.9189 -13.8600
   -13.7805 -13.7132 -13.6153 -13.5000 -13.4112 -13.3352 -13.3009 -13.1167
   -13.0217  -7.0270  -7.0187  -6.9256  -6.8129  -6.7778  -6.6901  -6.6128
    -6.4887  -6.4211  -6.2854  -6.2802  -6.0159  -5.8434  -5.6917  -5.5531
    -5.3826  -5.3394  -5.3111  -5.2768  -5.2454  -5.2101  -5.2073  -5.0712
    -4.9026  -4.8637  -4.7309  -4.4976  -4.4341  -4.3243  -4.2031  -4.1447
    -3.9864  -3.9439  -3.8365  -3.7319  -3.5183  -3.4692  -3.4022  -3.2235
    -3.1006  -3.0342  -2.9295  -2.8278  -2.7974  -2.7476  -2.7230  -2.7062
    -2.5984  -2.4975  -2.4632  -2.3853  -2.2077  -2.1841  -2.1628  -2.0937
    -2.0144  -1.9693  -1.5261  -1.2983  -1.2726  -1.1322   0.1999   0.2218
     1.0755   1.0766   1.1607   1.2178   1.3078   1.3920   1.4643   1.5558
     1.5901   1.7107   1.7624   1.7759   1.8590   1.9027   2.0109   2.0902
     2.1289   2.2048   2.2628   2.4203

          k = 0.1011-0.0584 0.0000 ( 70209 PWs)   bands (ev):

   -15.6026 -14.4551 -14.4096 -14.3539 -14.2769 -14.1248 -14.0508 -13.9049
   -13.7154 -13.6937 -13.6297 -13.5329 -13.4827 -13.3327 -13.2718 -13.0990
   -13.0006  -7.0525  -6.9277  -6.8611  -6.8602  -6.7640  -6.7295  -6.6135
    -6.5325  -6.4811  -6.1435  -6.1318  -5.9100  -5.7597  -5.6994  -5.5564
    -5.5423  -5.4901  -5.3562  -5.3529  -5.3144  -5.2370  -5.2367  -5.0639
    -4.9379  -4.9169  -4.8228  -4.4708  -4.3893  -4.3412  -4.1095  -4.0041
    -3.9875  -3.8995  -3.8108  -3.7472  -3.4807  -3.3986  -3.3888  -3.2706
    -3.1235  -3.0168  -2.9302  -2.9267  -2.7984  -2.7819  -2.5969  -2.5721
    -2.5441  -2.4775  -2.4350  -2.3130  -2.3054  -2.2497  -2.2337  -2.1947
    -2.1017  -2.0523  -1.5326  -1.2244  -1.2238  -1.1065   0.1899   0.1916
     1.0160   1.0193   1.2346   1.2800   1.3639   1.3857   1.4390   1.5052
     1.5817   1.5907   1.6850   1.6947   1.8519   1.8695   2.0174   2.0414
     2.1805   2.2235   2.3454   2.5265

          k = 0.2023 0.3504 0.0000 ( 70273 PWs)   bands (ev):

   -15.4212 -14.8436 -14.7559 -14.3031 -14.1214 -14.0198 -13.9512 -13.9001
   -13.6550 -13.5907 -13.5500 -13.4900 -13.4019 -13.3274 -13.2713 -13.1793
   -13.1039  -7.2150  -7.0919  -6.8506  -6.8123  -6.6910  -6.6486  -6.6228
    -6.5207  -6.4729  -6.4477  -6.3302  -6.2187  -5.9861  -5.7408  -5.5590
    -5.3669  -5.3339  -5.2225  -5.1099  -5.0348  -5.0058  -4.9476  -4.8820
    -4.7402  -4.6391  -4.6233  -4.5477  -4.4791  -4.4471  -4.2871  -4.2109
    -4.0895  -4.0270  -3.9192  -3.7692  -3.6803  -3.5509  -3.3960  -3.2302
    -3.1440  -3.1269  -3.0818  -3.0280  -2.9199  -2.8889  -2.7410  -2.7003
    -2.5873  -2.5174  -2.4776  -2.2820  -2.0557  -2.0113  -1.9455  -1.8894
    -1.8343  -1.7833  -1.5412  -1.5319  -1.3860  -1.2211   0.1972   0.3229
     1.0516   1.1017   1.1580   1.2072   1.3969   1.4407   1.5646   1.6118
     1.6761   1.7601   1.8275   1.9158   1.9227   1.9425   2.0329   2.0381
     2.0751   2.1719   2.2603   2.3466

          k = 0.2023 0.4672 0.0000 ( 70210 PWs)   bands (ev):

   -15.3119 -14.9981 -14.8231 -14.2408 -14.1090 -14.0442 -13.9555 -13.8718
   -13.6033 -13.5704 -13.5365 -13.4938 -13.4032 -13.3255 -13.2229 -13.2121
   -13.1483  -7.2739  -7.1030  -6.9278  -6.7502  -6.6774  -6.6502  -6.6008
    -6.5455  -6.4977  -6.4222  -6.3112  -6.2731  -6.0204  -5.8285  -5.5535
    -5.3799  -5.3482  -5.2167  -5.0491  -4.9874  -4.9191  -4.8508  -4.7847
    -4.6615  -4.6345  -4.6061  -4.5617  -4.4684  -4.4155  -4.3203  -4.2673
    -4.1046  -4.0119  -3.8873  -3.8045  -3.6019  -3.5616  -3.5123  -3.2949
    -3.2625  -3.1564  -3.1137  -3.0702  -2.9971  -2.9203  -2.8424  -2.6711
    -2.6430  -2.5066  -2.4137  -2.1930  -1.9982  -1.9460  -1.8518  -1.8115
    -1.7755  -1.6986  -1.6388  -1.5694  -1.4225  -1.2611   0.1859   0.3637
     1.0321   1.1088   1.1884   1.2285   1.4262   1.4974   1.5615   1.6238
     1.6741   1.7269   1.7758   1.8484   1.9101   1.9711   2.0411   2.1069
     2.1449   2.1737   2.2371   2.3386

          k = 0.2023 0.5840 0.0000 ( 70124 PWs)   bands (ev):

   -15.2115 -15.1194 -14.8403 -14.1873 -14.1405 -14.0787 -13.9533 -13.7793
   -13.6929 -13.5280 -13.5219 -13.4985 -13.3752 -13.3375 -13.2284 -13.1892
   -13.1823  -7.2986  -7.0758  -7.0007  -6.6964  -6.6665  -6.6467  -6.5952
    -6.5771  -6.5213  -6.4071  -6.2994  -6.2635  -6.0321  -5.8952  -5.5413
    -5.3861  -5.3510  -5.2143  -5.0290  -4.9530  -4.8823  -4.8592  -4.7037
    -4.6730  -4.6553  -4.5793  -4.5362  -4.4868  -4.4247  -4.3293  -4.2120
    -4.1040  -4.0212  -3.9273  -3.7902  -3.7222  -3.4915  -3.3800  -3.3119
    -3.2575  -3.2397  -3.1496  -3.1287  -3.0925  -2.9335  -2.8454  -2.6861
    -2.6467  -2.4975  -2.3839  -2.1587  -1.9768  -1.9223  -1.8160  -1.7808
    -1.7331  -1.6961  -1.6309  -1.6095  -1.4457  -1.2768   0.1816   0.3782
     1.0193   1.1208   1.2204   1.2416   1.4064   1.4969   1.5749   1.6276
     1.6606   1.7311   1.7639   1.8079   1.8911   1.9598   2.0654   2.1608
     2.1753   2.1887   2.2524   2.2829

          k = 0.2023-0.4672 0.0000 ( 70208 PWs)   bands (ev):

   -15.3119 -14.9981 -14.8231 -14.2408 -14.1090 -14.0441 -13.9555 -13.8718
   -13.6034 -13.5704 -13.5364 -13.4938 -13.4031 -13.3256 -13.2229 -13.2121
   -13.1483  -7.2739  -7.1030  -6.9278  -6.7502  -6.6775  -6.6501  -6.6008
    -6.5454  -6.4977  -6.4222  -6.3111  -6.2731  -6.0205  -5.8285  -5.5535
    -5.3800  -5.3482  -5.2167  -5.0491  -4.9874  -4.9191  -4.8508  -4.7847
    -4.6615  -4.6346  -4.6061  -4.5618  -4.4685  -4.4155  -4.3203  -4.2673
    -4.1046  -4.0119  -3.8873  -3.8045  -3.6020  -3.5617  -3.5123  -3.2949
    -3.2625  -3.1564  -3.1137  -3.0702  -2.9971  -2.9202  -2.8424  -2.6712
    -2.6429  -2.5066  -2.4137  -2.1929  -1.9982  -1.9460  -1.8517  -1.8116
    -1.7755  -1.6986  -1.6388  -1.5695  -1.4225  -1.2611   0.1859   0.3637
     1.0320   1.1089   1.1884   1.2283   1.4263   1.4974   1.5615   1.6238
     1.6742   1.7269   1.7757   1.8484   1.9101   1.9711   2.0411   2.1068
     2.1449   2.1737   2.2371   2.3387

          k = 0.2023-0.3504 0.0000 ( 70273 PWs)   bands (ev):

   -15.4212 -14.8436 -14.7559 -14.3031 -14.1214 -14.0199 -13.9511 -13.9001
   -13.6550 -13.5907 -13.5499 -13.4900 -13.4020 -13.3274 -13.2713 -13.1793
   -13.1039  -7.2150  -7.0919  -6.8506  -6.8123  -6.6910  -6.6486  -6.6228
    -6.5206  -6.4729  -6.4477  -6.3301  -6.2187  -5.9862  -5.7408  -5.5590
    -5.3669  -5.3339  -5.2225  -5.1099  -5.0348  -5.0059  -4.9476  -4.8820
    -4.7402  -4.6391  -4.6232  -4.5478  -4.4791  -4.4472  -4.2871  -4.2110
    -4.0896  -4.0269  -3.9192  -3.7693  -3.6803  -3.5508  -3.3960  -3.2303
    -3.1440  -3.1269  -3.0817  -3.0279  -2.9198  -2.8889  -2.7409  -2.7004
    -2.5873  -2.5174  -2.4775  -2.2820  -2.0557  -2.0113  -1.9455  -1.8894
    -1.8343  -1.7832  -1.5412  -1.5319  -1.3860  -1.2211   0.1972   0.3229
     1.0515   1.1018   1.1580   1.2071   1.3969   1.4406   1.5646   1.6118
     1.6762   1.7600   1.8276   1.9158   1.9228   1.9426   2.0328   2.0381
     2.0751   2.1719   2.2604   2.3466

          k = 0.2023-0.2336 0.0000 ( 70222 PWs)   bands (ev):

   -15.5025 -14.7427 -14.5957 -14.3542 -14.2294 -14.0099 -13.9035 -13.8445
   -13.7633 -13.6688 -13.5967 -13.4554 -13.3610 -13.3437 -13.3238 -13.1476
   -13.0615  -7.1538  -7.0093  -6.9244  -6.7829  -6.7347  -6.6946  -6.5852
    -6.4799  -6.4599  -6.4046  -6.3407  -6.1376  -5.9224  -5.7532  -5.4932
    -5.3564  -5.3058  -5.2364  -5.1898  -5.1428  -5.0983  -5.0618  -5.0297
    -4.8547  -4.7332  -4.6070  -4.5005  -4.4641  -4.3508  -4.2937  -4.2362
    -4.0918  -4.0258  -3.8897  -3.6930  -3.6419  -3.5127  -3.3834  -3.1554
    -3.1046  -3.0402  -3.0015  -2.9358  -2.8948  -2.7830  -2.7580  -2.7109
    -2.6128  -2.5996  -2.4032  -2.3423  -2.1327  -2.1032  -2.0365  -1.9912
    -1.9035  -1.8723  -1.5250  -1.4138  -1.3467  -1.1772   0.2101   0.2672
     1.0709   1.1011   1.1584   1.2069   1.3191   1.4087   1.4868   1.6051
     1.6526   1.7924   1.8462   1.8695   1.9108   1.9401   1.9580   2.0544
     2.1328   2.1681   2.2609   2.3142

          k = 0.2023-0.1168 0.0000 ( 70221 PWs)   bands (ev):

   -15.5522 -14.6473 -14.4329 -14.4094 -14.3079 -14.0019 -13.9180 -13.8704
   -13.7496 -13.7315 -13.6272 -13.4662 -13.3975 -13.3340 -13.3159 -13.1250
   -13.0321  -7.0856  -6.9974  -6.8695  -6.8552  -6.7615  -6.7366  -6.5432
    -6.4974  -6.4185  -6.3430  -6.3068  -6.0549  -5.8409  -5.7787  -5.4416
    -5.3677  -5.3384  -5.2908  -5.2621  -5.2184  -5.2087  -5.1608  -5.0608
    -4.9078  -4.8015  -4.6878  -4.5023  -4.4573  -4.3195  -4.2433  -4.1262
    -4.0945  -3.9345  -3.8963  -3.6667  -3.5680  -3.4884  -3.3883  -3.1930
    -3.1159  -3.0243  -2.8949  -2.8630  -2.8014  -2.7869  -2.7118  -2.6875
    -2.6667  -2.6039  -2.4575  -2.2620  -2.2324  -2.1450  -2.1139  -2.0922
    -1.9907  -1.9305  -1.5252  -1.3146  -1.3100  -1.1446   0.2169   0.2210
     1.0887   1.0935   1.1336   1.2150   1.3429   1.3800   1.4197   1.5821
     1.6331   1.7272   1.7952   1.8067   1.8695   1.9184   1.9952   2.1098
     2.1142   2.2082   2.2258   2.3902

          k = 0.3034 0.5256 0.0000 ( 70124 PWs)   bands (ev):

   -15.1967 -15.0674 -14.9453 -14.1751 -14.0898 -14.0230 -13.9639 -13.8757
   -13.7106 -13.5148 -13.4935 -13.4478 -13.4074 -13.3586 -13.2303 -13.1910
   -13.1710  -7.2670  -7.1275  -7.0384  -6.6720  -6.6401  -6.6193  -6.6112
    -6.5758  -6.5455  -6.4127  -6.3206  -6.2156  -6.0323  -5.8347  -5.6620
    -5.3855  -5.3746  -5.2274  -4.9926  -4.9129  -4.8541  -4.8039  -4.7103
    -4.6873  -4.6519  -4.6427  -4.5366  -4.4440  -4.4118  -4.3242  -4.2575
    -4.0775  -3.9875  -3.9074  -3.7436  -3.6812  -3.6407  -3.5140  -3.3440
    -3.2314  -3.1776  -3.1403  -3.1123  -2.9985  -2.9874  -2.8102  -2.7297
    -2.6370  -2.5464  -2.4436  -2.1217  -1.9367  -1.8937  -1.8239  -1.7505
    -1.7423  -1.6974  -1.6513  -1.6138  -1.4341  -1.2751   0.1686   0.3976
     1.0902   1.1246   1.1775   1.2126   1.3855   1.5139   1.6136   1.6246
     1.6649   1.7103   1.7261   1.7730   1.9045   2.0095   2.0728   2.1268
     2.1519   2.1745   2.2457   2.2808

          k = 0.3034 0.6424 0.0000 ( 70124 PWs)   bands (ev):

   -15.1967 -15.0673 -14.9453 -14.1751 -14.0897 -14.0230 -13.9639 -13.8757
   -13.7106 -13.5149 -13.4935 -13.4477 -13.4074 -13.3586 -13.2303 -13.1910
   -13.1710  -7.2670  -7.1275  -7.0384  -6.6720  -6.6401  -6.6193  -6.6112
    -6.5757  -6.5455  -6.4127  -6.3206  -6.2156  -6.0324  -5.8347  -5.6620
    -5.3855  -5.3746  -5.2275  -4.9926  -4.9129  -4.8541  -4.8039  -4.7103
    -4.6873  -4.6520  -4.6426  -4.5366  -4.4441  -4.4118  -4.3242  -4.2575
    -4.0775  -3.9875  -3.9074  -3.7436  -3.6812  -3.6407  -3.5140  -3.3439
    -3.2315  -3.1776  -3.1403  -3.1124  -2.9985  -2.9873  -2.8102  -2.7297
    -2.6369  -2.5464  -2.4437  -2.1216  -1.9367  -1.8937  -1.8239  -1.7505
    -1.7423  -1.6975  -1.6513  -1.6138  -1.4341  -1.2751   0.1686   0.3976
     1.0902   1.1246   1.1774   1.2126   1.3856   1.5139   1.6136   1.6246
     1.6649   1.7103   1.7260   1.7730   1.9045   2.0095   2.0729   2.1268
     2.1518   2.1745   2.2457   2.2808

          k = 0.3034-0.4088 0.0000 ( 70206 PWs)   bands (ev):

   -15.3119 -14.9981 -14.8231 -14.2408 -14.1090 -14.0441 -13.9555 -13.8718
   -13.6034 -13.5704 -13.5364 -13.4938 -13.4031 -13.3256 -13.2229 -13.2121
   -13.1483  -7.2740  -7.1030  -6.9278  -6.7502  -6.6774  -6.6501  -6.6008
    -6.5455  -6.4977  -6.4222  -6.3111  -6.2731  -6.0205  -5.8285  -5.5535
    -5.3800  -5.3482  -5.2167  -5.0491  -4.9874  -4.9191  -4.8508  -4.7847
    -4.6615  -4.6346  -4.6061  -4.5617  -4.4684  -4.4156  -4.3203  -4.2672
    -4.1046  -4.0119  -3.8873  -3.8046  -3.6019  -3.5617  -3.5122  -3.2948
    -3.2625  -3.1564  -3.1137  -3.0702  -2.9971  -2.9202  -2.8424  -2.6711
    -2.6429  -2.5066  -2.4137  -2.1929  -1.9983  -1.9459  -1.8517  -1.8116
    -1.7755  -1.6986  -1.6388  -1.5694  -1.4225  -1.2611   0.1859   0.3637
     1.0320   1.1088   1.1884   1.2284   1.4263   1.4974   1.5615   1.6238
     1.6742   1.7269   1.7757   1.8484   1.9101   1.9711   2.0411   2.1068
     2.1449   2.1737   2.2371   2.3387

          k = 0.3034-0.2920 0.0000 ( 70206 PWs)   bands (ev):

   -15.4055 -14.9331 -14.6471 -14.3141 -14.2445 -14.0105 -13.8785 -13.8439
   -13.6694 -13.6207 -13.5689 -13.4608 -13.3869 -13.3335 -13.2681 -13.1831
   -13.1151  -7.2645  -7.0168  -6.8419  -6.7996  -6.7599  -6.6741  -6.5767
    -6.5284  -6.4815  -6.4284  -6.3379  -6.2312  -5.9806  -5.8573  -5.4330
    -5.3571  -5.2954  -5.2007  -5.1371  -5.0843  -5.0313  -4.9291  -4.8639
    -4.7746  -4.6246  -4.5763  -4.5153  -4.4523  -4.4139  -4.2942  -4.2301
    -4.1473  -4.0836  -3.9215  -3.8550  -3.6070  -3.4920  -3.3636  -3.2301
    -3.1358  -3.1081  -3.0863  -3.0196  -2.9581  -2.9126  -2.8640  -2.7199
    -2.6439  -2.5170  -2.3063  -2.2658  -2.0666  -2.0363  -1.9219  -1.8932
    -1.8044  -1.7684  -1.5649  -1.5182  -1.4133  -1.2320   0.2153   0.3059
     1.0131   1.0769   1.2108   1.2509   1.3984   1.4486   1.5072   1.6471
     1.6904   1.7382   1.8334   1.8941   1.9205   1.9877   2.0307   2.0476
     2.0713   2.1904   2.2555   2.3593

          k = 0.3034-0.1752 0.0000 ( 70237 PWs)   bands (ev):

   -15.4698 -14.8471 -14.4923 -14.4128 -14.3014 -13.9644 -13.8757 -13.8053
   -13.7573 -13.6831 -13.5968 -13.4045 -13.3723 -13.3675 -13.3043 -13.1602
   -13.0816  -7.2217  -6.9351  -6.8800  -6.8606  -6.7212  -6.7194  -6.5332
    -6.5136  -6.4988  -6.3759  -6.3674  -6.1795  -5.9106  -5.8773  -5.3957
    -5.3106  -5.2406  -5.2248  -5.2194  -5.1618  -5.1418  -4.9905  -4.9547
    -4.8620  -4.6622  -4.5450  -4.4717  -4.4629  -4.3378  -4.3140  -4.2356
    -4.1987  -4.1060  -3.9200  -3.7616  -3.5508  -3.5408  -3.3405  -3.1292
    -3.1155  -3.0429  -2.9813  -2.9687  -2.9481  -2.8841  -2.7981  -2.7844
    -2.6739  -2.5421  -2.3773  -2.1973  -2.1405  -2.0654  -2.0201  -1.9666
    -1.8565  -1.8327  -1.5382  -1.4269  -1.4026  -1.1990   0.2441   0.2493
     1.0342   1.0775   1.1809   1.2768   1.3744   1.3849   1.4501   1.6419
     1.6925   1.7541   1.8607   1.8830   1.9382   1.9788   1.9836   2.0315
     2.0932   2.1835   2.2635   2.3138

          k = 0.4046 0.7008 0.0000 ( 70124 PWs)   bands (ev):

   -15.2115 -15.1195 -14.8403 -14.1873 -14.1404 -14.0787 -13.9533 -13.7793
   -13.6929 -13.5280 -13.5219 -13.4985 -13.3752 -13.3375 -13.2284 -13.1892
   -13.1823  -7.2986  -7.0757  -7.0007  -6.6964  -6.6664  -6.6468  -6.5952
    -6.5771  -6.5213  -6.4070  -6.2994  -6.2634  -6.0322  -5.8953  -5.5413
    -5.3861  -5.3510  -5.2143  -5.0290  -4.9530  -4.8823  -4.8592  -4.7036
    -4.6730  -4.6554  -4.5792  -4.5363  -4.4869  -4.4246  -4.3293  -4.2121
    -4.1040  -4.0212  -3.9274  -3.7902  -3.7222  -3.4914  -3.3799  -3.3118
    -3.2575  -3.2397  -3.1496  -3.1287  -3.0925  -2.9335  -2.8454  -2.6861
    -2.6467  -2.4975  -2.3839  -2.1587  -1.9769  -1.9222  -1.8160  -1.7808
    -1.7331  -1.6962  -1.6309  -1.6095  -1.4457  -1.2768   0.1816   0.3782
     1.0193   1.1208   1.2204   1.2416   1.4064   1.4968   1.5749   1.6277
     1.6606   1.7311   1.7638   1.8080   1.8911   1.9598   2.0654   2.1607
     2.1752   2.1886   2.2524   2.2829

          k = 0.4046-0.3504 0.0000 ( 70167 PWs)   bands (ev):

   -15.2864 -15.1006 -14.6730 -14.3001 -14.2153 -14.0940 -13.8651 -13.7376
   -13.6427 -13.5880 -13.5638 -13.5192 -13.3797 -13.2960 -13.2233 -13.2131
   -13.1726  -7.3258  -6.9938  -6.8979  -6.7654  -6.7215  -6.6996  -6.5777
    -6.5570  -6.4691  -6.4137  -6.3422  -6.2710  -6.0200  -5.9402  -5.4270
    -5.3307  -5.2901  -5.1802  -5.0987  -5.0710  -4.9826  -4.8602  -4.7321
    -4.6806  -4.6237  -4.5915  -4.5321  -4.4654  -4.4320  -4.3544  -4.2492
    -4.1234  -4.0254  -3.9664  -3.7939  -3.6085  -3.5016  -3.3563  -3.2799
    -3.2549  -3.1639  -3.1296  -3.0989  -3.0705  -2.9389  -2.9071  -2.7120
    -2.6359  -2.4760  -2.2541  -2.2053  -2.0368  -1.9897  -1.8747  -1.7945
    -1.7305  -1.6915  -1.6268  -1.5797  -1.4598  -1.2744   0.2168   0.3267
     0.9793   1.0684   1.2494   1.3089   1.4321   1.4801   1.5110   1.6101
     1.6868   1.7606   1.7963   1.8700   1.8770   1.9437   2.0310   2.1392
     2.1665   2.2305   2.2819   2.3550

          k = 0.4046-0.2336 0.0000 ( 70181 PWs)   bands (ev):

   -15.3592 -15.0310 -14.5289 -14.4289 -14.2536 -14.0603 -13.8041 -13.7342
   -13.7172 -13.6376 -13.5566 -13.4855 -13.3782 -13.3066 -13.2577 -13.1942
   -13.1441  -7.3143  -6.9050  -6.8929  -6.7839  -6.7500  -6.7466  -6.5653
    -6.5374  -6.4758  -6.3994  -6.3651  -6.2535  -5.9753  -5.9584  -5.4109
    -5.2650  -5.2057  -5.1849  -5.1701  -5.1236  -5.0851  -4.8579  -4.7987
    -4.7935  -4.6035  -4.5719  -4.4715  -4.4680  -4.3906  -4.3558  -4.2688
    -4.1131  -4.0979  -3.9394  -3.8848  -3.6107  -3.4180  -3.2963  -3.2676
    -3.2066  -3.1294  -3.1009  -3.0490  -2.9904  -2.9778  -2.9004  -2.7525
    -2.6419  -2.4828  -2.3075  -2.1270  -2.0786  -1.9973  -1.9782  -1.8385
    -1.7561  -1.7235  -1.5989  -1.5307  -1.4570  -1.2562   0.2608   0.2673
     0.9846   1.0484   1.2386   1.3529   1.3994   1.4387   1.4937   1.6451
     1.6822   1.7408   1.8274   1.9007   1.9087   1.9682   2.0113   2.0957
     2.1082   2.2222   2.3020   2.3769

          k =-0.5057-0.8759 0.0000 ( 70188 PWs)   bands (ev):

   -15.2598 -15.1553 -14.5412 -14.4361 -14.2105 -14.1188 -13.8028 -13.7140
   -13.6175 -13.6017 -13.5801 -13.5567 -13.3826 -13.2487 -13.2303 -13.2176
   -13.1970  -7.3469  -6.8929  -6.8863  -6.8047  -6.7753  -6.6923  -6.6094
    -6.5314  -6.4351  -6.4135  -6.3832  -6.2680  -6.0230  -5.9754  -5.4203
    -5.2469  -5.1963  -5.1790  -5.1581  -5.1027  -5.0538  -4.8091  -4.7573
    -4.6631  -4.6242  -4.5666  -4.4866  -4.4717  -4.4672  -4.4525  -4.2909
    -4.0435  -4.0345  -3.9869  -3.7061  -3.5881  -3.5298  -3.4409  -3.2910
    -3.2200  -3.1351  -3.1315  -3.0824  -3.0507  -2.9705  -2.9205  -2.7425
    -2.6285  -2.4674  -2.2808  -2.0956  -2.0609  -1.9657  -1.9645  -1.7650
    -1.7134  -1.6926  -1.6145  -1.5856  -1.4868  -1.2835   0.2659   0.2736
     0.9677   1.0389   1.2711   1.3898   1.4108   1.4649   1.4904   1.5970
     1.6966   1.7605   1.8117   1.8758   1.8794   1.9355   2.0097   2.1601
     2.1893   2.2551   2.3365   2.3489

          k =-0.1011-0.0584 0.0000 ( 70211 PWs)   bands (ev):

   -15.6026 -14.4550 -14.4096 -14.3540 -14.2769 -14.1249 -14.0507 -13.9049
   -13.7153 -13.6938 -13.6296 -13.5329 -13.4827 -13.3327 -13.2718 -13.0990
   -13.0006  -7.0525  -6.9277  -6.8611  -6.8602  -6.7640  -6.7295  -6.6134
    -6.5325  -6.4810  -6.1434  -6.1319  -5.9100  -5.7596  -5.6994  -5.5564
    -5.5424  -5.4901  -5.3563  -5.3528  -5.3143  -5.2370  -5.2367  -5.0639
    -4.9380  -4.9168  -4.8228  -4.4708  -4.3892  -4.3413  -4.1095  -4.0040
    -3.9875  -3.8996  -3.8106  -3.7473  -3.4807  -3.3986  -3.3888  -3.2707
    -3.1234  -3.0168  -2.9301  -2.9268  -2.7984  -2.7819  -2.5970  -2.5721
    -2.5442  -2.4774  -2.4350  -2.3131  -2.3053  -2.2497  -2.2337  -2.1948
    -2.1017  -2.0523  -1.5326  -1.2244  -1.2238  -1.1065   0.1898   0.1917
     1.0161   1.0193   1.2346   1.2800   1.3639   1.3857   1.4390   1.5052
     1.5816   1.5908   1.6850   1.6947   1.8519   1.8694   2.0175   2.0414
     2.1805   2.2235   2.3454   2.5265

          k =-0.2023-0.1168 0.0000 ( 70221 PWs)   bands (ev):

   -15.5522 -14.6472 -14.4329 -14.4094 -14.3079 -14.0019 -13.9179 -13.8705
   -13.7496 -13.7315 -13.6271 -13.4662 -13.3976 -13.3340 -13.3159 -13.1250
   -13.0321  -7.0856  -6.9974  -6.8695  -6.8553  -6.7616  -6.7366  -6.5432
    -6.4974  -6.4184  -6.3430  -6.3069  -6.0549  -5.8408  -5.7787  -5.4416
    -5.3678  -5.3383  -5.2908  -5.2621  -5.2184  -5.2087  -5.1608  -5.0608
    -4.9078  -4.8014  -4.6879  -4.5023  -4.4572  -4.3195  -4.2434  -4.1261
    -4.0945  -3.9344  -3.8964  -3.6669  -3.5680  -3.4884  -3.3884  -3.1931
    -3.1158  -3.0243  -2.8949  -2.8630  -2.8015  -2.7868  -2.7118  -2.6875
    -2.6668  -2.6039  -2.4574  -2.2621  -2.2323  -2.1450  -2.1139  -2.0922
    -1.9906  -1.9305  -1.5252  -1.3146  -1.3100  -1.1446   0.2167   0.2212
     1.0888   1.0934   1.1337   1.2150   1.3429   1.3799   1.4197   1.5820
     1.6331   1.7271   1.7952   1.8068   1.8696   1.9184   1.9952   2.1098
     2.1142   2.2082   2.2257   2.3902

          k =-0.3034-0.1752 0.0000 ( 70237 PWs)   bands (ev):

   -15.4698 -14.8471 -14.4924 -14.4128 -14.3014 -13.9644 -13.8758 -13.8053
   -13.7573 -13.6831 -13.5967 -13.4045 -13.3723 -13.3675 -13.3043 -13.1602
   -13.0816  -7.2217  -6.9351  -6.8801  -6.8606  -6.7213  -6.7194  -6.5332
    -6.5136  -6.4988  -6.3759  -6.3674  -6.1795  -5.9105  -5.8773  -5.3957
    -5.3105  -5.2407  -5.2248  -5.2193  -5.1618  -5.1417  -4.9905  -4.9546
    -4.8620  -4.6622  -4.5450  -4.4718  -4.4629  -4.3377  -4.3141  -4.2355
    -4.1987  -4.1059  -3.9201  -3.7615  -3.5507  -3.5410  -3.3406  -3.1292
    -3.1156  -3.0429  -2.9813  -2.9686  -2.9481  -2.8842  -2.7983  -2.7843
    -2.6739  -2.5420  -2.3773  -2.1975  -2.1405  -2.0654  -2.0201  -1.9666
    -1.8564  -1.8327  -1.5382  -1.4269  -1.4026  -1.1990   0.2440   0.2495
     1.0342   1.0774   1.1809   1.2768   1.3744   1.3849   1.4502   1.6419
     1.6925   1.7540   1.8607   1.8830   1.9382   1.9789   1.9836   2.0316
     2.0932   2.1835   2.2635   2.3139

          k =-0.4046-0.2336 0.0000 ( 70181 PWs)   bands (ev):

   -15.3592 -15.0310 -14.5290 -14.4289 -14.2536 -14.0603 -13.8042 -13.7341
   -13.7172 -13.6376 -13.5566 -13.4855 -13.3782 -13.3066 -13.2577 -13.1942
   -13.1441  -7.3143  -6.9050  -6.8929  -6.7839  -6.7500  -6.7467  -6.5653
    -6.5374  -6.4758  -6.3994  -6.3651  -6.2535  -5.9753  -5.9583  -5.4109
    -5.2649  -5.2057  -5.1849  -5.1702  -5.1235  -5.0851  -4.8578  -4.7988
    -4.7935  -4.6034  -4.5719  -4.4715  -4.4681  -4.3905  -4.3557  -4.2687
    -4.1132  -4.0978  -3.9393  -3.8848  -3.6107  -3.4181  -3.2964  -3.2676
    -3.2066  -3.1294  -3.1009  -3.0490  -2.9905  -2.9778  -2.9005  -2.7525
    -2.6418  -2.4828  -2.3075  -2.1271  -2.0786  -1.9973  -1.9783  -1.8385
    -1.7561  -1.7235  -1.5988  -1.5307  -1.4569  -1.2562   0.2606   0.2675
     0.9847   1.0483   1.2386   1.3530   1.3993   1.4387   1.4937   1.6450
     1.6822   1.7408   1.8275   1.9007   1.9087   1.9682   2.0113   2.0957
     2.1082   2.2223   2.3021   2.3769

          k = 0.5057 0.2920 0.0000 ( 70188 PWs)   bands (ev):

   -15.2597 -15.1553 -14.5413 -14.4361 -14.2105 -14.1188 -13.8029 -13.7140
   -13.6175 -13.6017 -13.5801 -13.5567 -13.3826 -13.2487 -13.2303 -13.2175
   -13.1970  -7.3469  -6.8930  -6.8863  -6.8047  -6.7754  -6.6923  -6.6094
    -6.5314  -6.4351  -6.4135  -6.3832  -6.2680  -6.0230  -5.9753  -5.4203
    -5.2469  -5.1963  -5.1790  -5.1582  -5.1026  -5.0538  -4.8090  -4.7573
    -4.6632  -4.6241  -4.5666  -4.4866  -4.4716  -4.4672  -4.4526  -4.2908
    -4.0436  -4.0343  -3.9867  -3.7060  -3.5881  -3.5298  -3.4409  -3.2912
    -3.2202  -3.1353  -3.1315  -3.0823  -3.0507  -2.9705  -2.9206  -2.7425
    -2.6284  -2.4674  -2.2808  -2.0957  -2.0609  -1.9656  -1.9645  -1.7650
    -1.7134  -1.6925  -1.6145  -1.5857  -1.4867  -1.2835   0.2658   0.2737
     0.9678   1.0389   1.2712   1.3899   1.4108   1.4649   1.4905   1.5969
     1.6966   1.7604   1.8118   1.8758   1.8794   1.9355   2.0097   2.1601
     2.1893   2.2552   2.3363   2.3489

          k =-0.2023-0.2336 0.0000 ( 70222 PWs)   bands (ev):

   -15.5025 -14.7426 -14.5957 -14.3543 -14.2294 -14.0099 -13.9035 -13.8445
   -13.7633 -13.6688 -13.5967 -13.4554 -13.3609 -13.3437 -13.3237 -13.1475
   -13.0615  -7.1538  -7.0093  -6.9244  -6.7829  -6.7347  -6.6947  -6.5852
    -6.4800  -6.4599  -6.4046  -6.3408  -6.1377  -5.9223  -5.7532  -5.4933
    -5.3563  -5.3059  -5.2364  -5.1898  -5.1428  -5.0983  -5.0618  -5.0297
    -4.8547  -4.7332  -4.6070  -4.5004  -4.4641  -4.3507  -4.2937  -4.2362
    -4.0917  -4.0258  -3.8897  -3.6930  -3.6419  -3.5127  -3.3834  -3.1555
    -3.1046  -3.0402  -3.0015  -2.9359  -2.8948  -2.7831  -2.7580  -2.7109
    -2.6128  -2.5996  -2.4032  -2.3423  -2.1326  -2.1033  -2.0365  -1.9912
    -1.9034  -1.8723  -1.5250  -1.4138  -1.3468  -1.1772   0.2101   0.2672
     1.0709   1.1011   1.1585   1.2069   1.3191   1.4087   1.4868   1.6050
     1.6526   1.7924   1.8462   1.8696   1.9109   1.9401   1.9581   2.0544
     2.1328   2.1681   2.2609   2.3142

          k =-0.3034-0.2920 0.0000 ( 70206 PWs)   bands (ev):

   -15.4055 -14.9331 -14.6471 -14.3141 -14.2444 -14.0105 -13.8786 -13.8439
   -13.6694 -13.6207 -13.5688 -13.4609 -13.3869 -13.3334 -13.2681 -13.1831
   -13.1151  -7.2645  -7.0168  -6.8419  -6.7996  -6.7599  -6.6741  -6.5766
    -6.5284  -6.4815  -6.4284  -6.3380  -6.2312  -5.9805  -5.8573  -5.4330
    -5.3570  -5.2954  -5.2007  -5.1371  -5.0843  -5.0313  -4.9291  -4.8639
    -4.7746  -4.6246  -4.5763  -4.5153  -4.4523  -4.4138  -4.2942  -4.2300
    -4.1473  -4.0835  -3.9215  -3.8549  -3.6070  -3.4921  -3.3637  -3.2301
    -3.1358  -3.1081  -3.0864  -3.0196  -2.9582  -2.9126  -2.8640  -2.7199
    -2.6439  -2.5170  -2.3064  -2.2659  -2.0665  -2.0364  -1.9219  -1.8932
    -1.8044  -1.7684  -1.5649  -1.5182  -1.4133  -1.2320   0.2153   0.3059
     1.0131   1.0769   1.2108   1.2509   1.3984   1.4486   1.5071   1.6471
     1.6903   1.7382   1.8334   1.8940   1.9205   1.9877   2.0307   2.0476
     2.0714   2.1905   2.2556   2.3593

          k =-0.4046-0.3504 0.0000 ( 70167 PWs)   bands (ev):

   -15.2864 -15.1006 -14.6730 -14.3001 -14.2152 -14.0940 -13.8652 -13.7376
   -13.6427 -13.5879 -13.5637 -13.5192 -13.3797 -13.2960 -13.2233 -13.2131
   -13.1727  -7.3258  -6.9938  -6.8979  -6.7654  -6.7215  -6.6996  -6.5777
    -6.5570  -6.4691  -6.4138  -6.3422  -6.2710  -6.0199  -5.9402  -5.4270
    -5.3306  -5.2901  -5.1802  -5.0987  -5.0710  -4.9825  -4.8602  -4.7321
    -4.6806  -4.6237  -4.5914  -4.5321  -4.4654  -4.4319  -4.3543  -4.2491
    -4.1235  -4.0253  -3.9663  -3.7939  -3.6085  -3.5016  -3.3564  -3.2800
    -3.2549  -3.1640  -3.1296  -3.0989  -3.0706  -2.9389  -2.9071  -2.7120
    -2.6358  -2.4760  -2.2542  -2.2054  -2.0367  -1.9898  -1.8747  -1.7945
    -1.7305  -1.6914  -1.6268  -1.5798  -1.4598  -1.2744   0.2168   0.3267
     0.9794   1.0684   1.2495   1.3089   1.4320   1.4801   1.5111   1.6100
     1.6868   1.7606   1.7963   1.8700   1.8770   1.9437   2.0310   2.1392
     2.1666   2.2306   2.2819   2.3549

          k = 0.5057 0.1752 0.0000 ( 70167 PWs)   bands (ev):

   -15.2864 -15.1006 -14.6730 -14.3001 -14.2153 -14.0940 -13.8652 -13.7376
   -13.6427 -13.5880 -13.5638 -13.5191 -13.3796 -13.2960 -13.2233 -13.2131
   -13.1726  -7.3258  -6.9938  -6.8980  -6.7654  -6.7215  -6.6996  -6.5777
    -6.5570  -6.4691  -6.4137  -6.3422  -6.2710  -6.0200  -5.9401  -5.4270
    -5.3306  -5.2901  -5.1802  -5.0987  -5.0710  -4.9826  -4.8602  -4.7321
    -4.6805  -4.6237  -4.5915  -4.5321  -4.4654  -4.4319  -4.3543  -4.2491
    -4.1234  -4.0254  -3.9663  -3.7938  -3.6085  -3.5016  -3.3564  -3.2799
    -3.2549  -3.1640  -3.1296  -3.0989  -3.0705  -2.9389  -2.9071  -2.7120
    -2.6359  -2.4760  -2.2541  -2.2054  -2.0367  -1.9898  -1.8747  -1.7945
    -1.7305  -1.6914  -1.6268  -1.5798  -1.4598  -1.2744   0.2168   0.3267
     0.9793   1.0684   1.2494   1.3089   1.4321   1.4801   1.5111   1.6099
     1.6869   1.7606   1.7963   1.8700   1.8770   1.9437   2.0310   2.1392
     2.1665   2.2306   2.2819   2.3549

          k = 0.4046 0.1168 0.0000 ( 70206 PWs)   bands (ev):

   -15.4055 -14.9330 -14.6472 -14.3141 -14.2445 -14.0105 -13.8785 -13.8439
   -13.6695 -13.6207 -13.5689 -13.4608 -13.3869 -13.3335 -13.2681 -13.1831
   -13.1151  -7.2645  -7.0168  -6.8419  -6.7997  -6.7600  -6.6741  -6.5766
    -6.5284  -6.4815  -6.4284  -6.3380  -6.2312  -5.9806  -5.8572  -5.4330
    -5.3570  -5.2954  -5.2007  -5.1371  -5.0843  -5.0313  -4.9291  -4.8638
    -4.7746  -4.6246  -4.5763  -4.5153  -4.4523  -4.4138  -4.2942  -4.2300
    -4.1473  -4.0836  -3.9215  -3.8550  -3.6070  -3.4921  -3.3637  -3.2301
    -3.1358  -3.1081  -3.0863  -3.0196  -2.9581  -2.9126  -2.8640  -2.7199
    -2.6439  -2.5170  -2.3063  -2.2659  -2.0665  -2.0364  -1.9219  -1.8932
    -1.8044  -1.7684  -1.5649  -1.5182  -1.4133  -1.2320   0.2153   0.3059
     1.0131   1.0769   1.2108   1.2509   1.3984   1.4487   1.5072   1.6470
     1.6904   1.7381   1.8334   1.8941   1.9205   1.9877   2.0307   2.0476
     2.0713   2.1905   2.2555   2.3593

          k = 0.3034 0.0584 0.0000 ( 70222 PWs)   bands (ev):

   -15.5025 -14.7426 -14.5958 -14.3542 -14.2294 -14.0099 -13.9035 -13.8445
   -13.7634 -13.6688 -13.5967 -13.4554 -13.3610 -13.3437 -13.3237 -13.1476
   -13.0615  -7.1538  -7.0093  -6.9244  -6.7830  -6.7347  -6.6947  -6.5852
    -6.4800  -6.4598  -6.4046  -6.3407  -6.1376  -5.9224  -5.7532  -5.4932
    -5.3563  -5.3059  -5.2365  -5.1898  -5.1428  -5.0983  -5.0618  -5.0297
    -4.8547  -4.7331  -4.6071  -4.5004  -4.4641  -4.3508  -4.2937  -4.2362
    -4.0917  -4.0258  -3.8896  -3.6930  -3.6419  -3.5127  -3.3834  -3.1555
    -3.1046  -3.0402  -3.0015  -2.9358  -2.8949  -2.7831  -2.7580  -2.7109
    -2.6128  -2.5996  -2.4031  -2.3423  -2.1326  -2.1033  -2.0364  -1.9913
    -1.9034  -1.8723  -1.5250  -1.4138  -1.3468  -1.1772   0.2101   0.2672
     1.0709   1.1011   1.1584   1.2069   1.3190   1.4087   1.4868   1.6051
     1.6526   1.7923   1.8462   1.8696   1.9108   1.9401   1.9580   2.0544
     2.1328   2.1681   2.2609   2.3141

          k = 0.2023 0.0000 0.0000 ( 70219 PWs)   bands (ev):

   -15.5689 -14.5570 -14.5112 -14.3858 -14.2253 -14.1025 -13.9189 -13.8600
   -13.7805 -13.7132 -13.6153 -13.5000 -13.4112 -13.3352 -13.3009 -13.1167
   -13.0217  -7.0270  -7.0187  -6.9256  -6.8129  -6.7778  -6.6901  -6.6128
    -6.4887  -6.4211  -6.2854  -6.2802  -6.0159  -5.8434  -5.6917  -5.5531
    -5.3826  -5.3394  -5.3111  -5.2768  -5.2454  -5.2101  -5.2073  -5.0712
    -4.9026  -4.8637  -4.7309  -4.4976  -4.4341  -4.3243  -4.2031  -4.1447
    -3.9864  -3.9439  -3.8365  -3.7319  -3.5183  -3.4692  -3.4022  -3.2235
    -3.1006  -3.0342  -2.9295  -2.8279  -2.7974  -2.7476  -2.7230  -2.7062
    -2.5984  -2.4975  -2.4632  -2.3853  -2.2077  -2.1840  -2.1628  -2.0937
    -2.0144  -1.9693  -1.5261  -1.2983  -1.2726  -1.1322   0.1999   0.2218
     1.0755   1.0766   1.1607   1.2178   1.3078   1.3920   1.4643   1.5558
     1.5901   1.7107   1.7624   1.7759   1.8590   1.9027   2.0109   2.0902
     2.1289   2.2048   2.2628   2.4203

          k =-0.3034-0.4088 0.0000 ( 70210 PWs)   bands (ev):

   -15.3119 -14.9981 -14.8231 -14.2408 -14.1090 -14.0442 -13.9555 -13.8718
   -13.6033 -13.5704 -13.5365 -13.4938 -13.4032 -13.3255 -13.2229 -13.2121
   -13.1483  -7.2739  -7.1030  -6.9278  -6.7502  -6.6774  -6.6502  -6.6008
    -6.5455  -6.4977  -6.4222  -6.3112  -6.2731  -6.0204  -5.8285  -5.5535
    -5.3799  -5.3482  -5.2167  -5.0491  -4.9874  -4.9191  -4.8508  -4.7847
    -4.6615  -4.6345  -4.6061  -4.5617  -4.4684  -4.4155  -4.3203  -4.2673
    -4.1046  -4.0119  -3.8873  -3.8045  -3.6019  -3.5616  -3.5123  -3.2949
    -3.2625  -3.1564  -3.1137  -3.0702  -2.9971  -2.9203  -2.8424  -2.6711
    -2.6430  -2.5066  -2.4137  -2.1930  -1.9982  -1.9460  -1.8517  -1.8115
    -1.7755  -1.6986  -1.6388  -1.5694  -1.4225  -1.2611   0.1859   0.3637
     1.0321   1.1088   1.1884   1.2284   1.4262   1.4974   1.5615   1.6238
     1.6741   1.7269   1.7758   1.8484   1.9101   1.9711   2.0411   2.1069
     2.1449   2.1737   2.2371   2.3386

          k =-0.4046-0.4672 0.0000 ( 70124 PWs)   bands (ev):

   -15.2115 -15.1195 -14.8403 -14.1872 -14.1405 -14.0788 -13.9533 -13.7793
   -13.6929 -13.5281 -13.5219 -13.4985 -13.3752 -13.3375 -13.2284 -13.1892
   -13.1823  -7.2986  -7.0757  -7.0007  -6.6964  -6.6665  -6.6467  -6.5952
    -6.5771  -6.5213  -6.4071  -6.2994  -6.2635  -6.0321  -5.8952  -5.5413
    -5.3861  -5.3510  -5.2143  -5.0290  -4.9530  -4.8823  -4.8592  -4.7037
    -4.6730  -4.6553  -4.5793  -4.5362  -4.4868  -4.4247  -4.3293  -4.2120
    -4.1040  -4.0212  -3.9273  -3.7902  -3.7222  -3.4915  -3.3800  -3.3119
    -3.2575  -3.2397  -3.1496  -3.1287  -3.0925  -2.9335  -2.8455  -2.6861
    -2.6467  -2.4975  -2.3839  -2.1587  -1.9768  -1.9223  -1.8160  -1.7808
    -1.7331  -1.6961  -1.6309  -1.6095  -1.4457  -1.2768   0.1816   0.3782
     1.0193   1.1208   1.2204   1.2416   1.4064   1.4969   1.5749   1.6276
     1.6606   1.7311   1.7639   1.8079   1.8911   1.9598   2.0654   2.1608
     2.1752   2.1887   2.2524   2.2829

          k = 0.5057 0.0584 0.0000 ( 70208 PWs)   bands (ev):

   -15.3119 -14.9981 -14.8231 -14.2408 -14.1090 -14.0442 -13.9555 -13.8718
   -13.6034 -13.5704 -13.5364 -13.4938 -13.4031 -13.3256 -13.2229 -13.2121
   -13.1483  -7.2739  -7.1030  -6.9278  -6.7502  -6.6775  -6.6501  -6.6008
    -6.5454  -6.4977  -6.4222  -6.3111  -6.2731  -6.0205  -5.8285  -5.5535
    -5.3800  -5.3482  -5.2167  -5.0491  -4.9874  -4.9191  -4.8508  -4.7847
    -4.6615  -4.6346  -4.6061  -4.5618  -4.4685  -4.4155  -4.3203  -4.2673
    -4.1046  -4.0119  -3.8873  -3.8045  -3.6020  -3.5617  -3.5123  -3.2949
    -3.2625  -3.1564  -3.1137  -3.0702  -2.9971  -2.9202  -2.8424  -2.6712
    -2.6429  -2.5066  -2.4137  -2.1929  -1.9982  -1.9460  -1.8517  -1.8115
    -1.7755  -1.6986  -1.6388  -1.5695  -1.4225  -1.2611   0.1859   0.3637
     1.0320   1.1088   1.1884   1.2283   1.4263   1.4974   1.5615   1.6238
     1.6742   1.7269   1.7757   1.8484   1.9101   1.9711   2.0411   2.1068
     2.1449   2.1737   2.2371   2.3387

          k = 0.4046 0.0000 0.0000 ( 70273 PWs)   bands (ev):

   -15.4212 -14.8436 -14.7559 -14.3031 -14.1214 -14.0199 -13.9511 -13.9001
   -13.6551 -13.5907 -13.5499 -13.4900 -13.4019 -13.3274 -13.2713 -13.1793
   -13.1039  -7.2150  -7.0919  -6.8507  -6.8123  -6.6910  -6.6486  -6.6228
    -6.5206  -6.4729  -6.4477  -6.3302  -6.2187  -5.9862  -5.7408  -5.5590
    -5.3669  -5.3339  -5.2225  -5.1099  -5.0348  -5.0059  -4.9476  -4.8820
    -4.7402  -4.6391  -4.6232  -4.5478  -4.4791  -4.4472  -4.2871  -4.2110
    -4.0896  -4.0269  -3.9192  -3.7693  -3.6803  -3.5508  -3.3960  -3.2303
    -3.1440  -3.1269  -3.0817  -3.0279  -2.9198  -2.8889  -2.7409  -2.7004
    -2.5873  -2.5174  -2.4775  -2.2820  -2.0557  -2.0113  -1.9455  -1.8894
    -1.8343  -1.7832  -1.5412  -1.5319  -1.3860  -1.2211   0.1972   0.3229
     1.0515   1.1018   1.1580   1.2071   1.3969   1.4407   1.5646   1.6118
     1.6762   1.7600   1.8276   1.9158   1.9228   1.9426   2.0328   2.0380
     2.0751   2.1719   2.2603   2.3465

          k = 0.3034-0.0584 0.0000 ( 70222 PWs)   bands (ev):

   -15.5025 -14.7427 -14.5957 -14.3542 -14.2294 -14.0099 -13.9035 -13.8445
   -13.7634 -13.6688 -13.5967 -13.4554 -13.3610 -13.3437 -13.3238 -13.1476
   -13.0615  -7.1538  -7.0093  -6.9244  -6.7829  -6.7347  -6.6946  -6.5852
    -6.4799  -6.4599  -6.4046  -6.3407  -6.1376  -5.9224  -5.7532  -5.4932
    -5.3564  -5.3058  -5.2364  -5.1898  -5.1428  -5.0983  -5.0618  -5.0297
    -4.8547  -4.7332  -4.6070  -4.5005  -4.4641  -4.3508  -4.2937  -4.2362
    -4.0918  -4.0258  -3.8897  -3.6930  -3.6419  -3.5127  -3.3834  -3.1554
    -3.1046  -3.0402  -3.0015  -2.9358  -2.8948  -2.7830  -2.7580  -2.7109
    -2.6128  -2.5996  -2.4032  -2.3423  -2.1327  -2.1032  -2.0365  -1.9912
    -1.9035  -1.8723  -1.5250  -1.4138  -1.3468  -1.1773   0.2101   0.2672
     1.0709   1.1011   1.1584   1.2069   1.3191   1.4087   1.4868   1.6051
     1.6526   1.7924   1.8462   1.8695   1.9108   1.9401   1.9580   2.0544
     2.1328   2.1681   2.2609   2.3142

          k =-0.4046-0.5840 0.0000 ( 70124 PWs)   bands (ev):

   -15.1967 -15.0674 -14.9453 -14.1751 -14.0898 -14.0230 -13.9639 -13.8757
   -13.7106 -13.5149 -13.4934 -13.4477 -13.4074 -13.3586 -13.2304 -13.1910
   -13.1710  -7.2670  -7.1275  -7.0384  -6.6720  -6.6401  -6.6193  -6.6112
    -6.5757  -6.5455  -6.4127  -6.3206  -6.2156  -6.0324  -5.8347  -5.6620
    -5.3855  -5.3746  -5.2274  -4.9926  -4.9129  -4.8541  -4.8039  -4.7103
    -4.6873  -4.6520  -4.6426  -4.5366  -4.4441  -4.4118  -4.3242  -4.2575
    -4.0775  -3.9875  -3.9074  -3.7437  -3.6812  -3.6407  -3.5140  -3.3439
    -3.2315  -3.1776  -3.1403  -3.1124  -2.9985  -2.9873  -2.8102  -2.7297
    -2.6369  -2.5464  -2.4437  -2.1216  -1.9367  -1.8937  -1.8239  -1.7505
    -1.7423  -1.6975  -1.6513  -1.6138  -1.4341  -1.2751   0.1686   0.3976
     1.0902   1.1246   1.1774   1.2126   1.3856   1.5139   1.6136   1.6246
     1.6649   1.7103   1.7260   1.7730   1.9045   2.0095   2.0729   2.1268
     2.1518   2.1745   2.2456   2.2808

          k = 0.5057-0.0584 0.0000 ( 70206 PWs)   bands (ev):

   -15.3119 -14.9981 -14.8231 -14.2408 -14.1090 -14.0442 -13.9555 -13.8718
   -13.6034 -13.5704 -13.5364 -13.4938 -13.4031 -13.3255 -13.2229 -13.2121
   -13.1483  -7.2740  -7.1030  -6.9278  -6.7502  -6.6774  -6.6501  -6.6008
    -6.5455  -6.4977  -6.4222  -6.3111  -6.2731  -6.0205  -5.8285  -5.5535
    -5.3800  -5.3482  -5.2167  -5.0491  -4.9874  -4.9191  -4.8508  -4.7847
    -4.6615  -4.6346  -4.6061  -4.5617  -4.4684  -4.4156  -4.3203  -4.2672
    -4.1046  -4.0119  -3.8873  -3.8046  -3.6019  -3.5617  -3.5122  -3.2948
    -3.2625  -3.1564  -3.1137  -3.0702  -2.9971  -2.9202  -2.8424  -2.6711
    -2.6430  -2.5066  -2.4137  -2.1929  -1.9982  -1.9459  -1.8517  -1.8116
    -1.7755  -1.6986  -1.6388  -1.5694  -1.4225  -1.2611   0.1859   0.3637
     1.0320   1.1088   1.1884   1.2284   1.4263   1.4974   1.5615   1.6238
     1.6742   1.7269   1.7757   1.8484   1.9101   1.9711   2.0411   2.1068
     2.1449   2.1737   2.2371   2.3387

          k = 0.4046-0.1168 0.0000 ( 70206 PWs)   bands (ev):

   -15.4055 -14.9331 -14.6471 -14.3141 -14.2445 -14.0105 -13.8785 -13.8439
   -13.6694 -13.6207 -13.5689 -13.4608 -13.3869 -13.3334 -13.2681 -13.1831
   -13.1151  -7.2645  -7.0168  -6.8419  -6.7996  -6.7599  -6.6741  -6.5767
    -6.5284  -6.4815  -6.4284  -6.3379  -6.2312  -5.9806  -5.8573  -5.4330
    -5.3571  -5.2954  -5.2007  -5.1371  -5.0843  -5.0313  -4.9291  -4.8639
    -4.7746  -4.6246  -4.5763  -4.5153  -4.4523  -4.4139  -4.2942  -4.2301
    -4.1473  -4.0836  -3.9215  -3.8550  -3.6070  -3.4920  -3.3636  -3.2301
    -3.1358  -3.1081  -3.0863  -3.0196  -2.9581  -2.9126  -2.8640  -2.7199
    -2.6439  -2.5170  -2.3064  -2.2658  -2.0666  -2.0363  -1.9219  -1.8932
    -1.8044  -1.7684  -1.5649  -1.5181  -1.4133  -1.2320   0.2153   0.3059
     1.0131   1.0769   1.2108   1.2509   1.3984   1.4486   1.5072   1.6471
     1.6904   1.7382   1.8334   1.8941   1.9205   1.9877   2.0307   2.0476
     2.0713   2.1904   2.2555   2.3593

          k = 0.5057-0.1752 0.0000 ( 70167 PWs)   bands (ev):

   -15.2864 -15.1006 -14.6730 -14.3001 -14.2153 -14.0940 -13.8651 -13.7376
   -13.6427 -13.5880 -13.5638 -13.5192 -13.3797 -13.2960 -13.2234 -13.2131
   -13.1726  -7.3258  -6.9938  -6.8979  -6.7654  -6.7215  -6.6996  -6.5777
    -6.5570  -6.4691  -6.4137  -6.3422  -6.2710  -6.0200  -5.9402  -5.4270
    -5.3307  -5.2901  -5.1802  -5.0987  -5.0710  -4.9826  -4.8602  -4.7321
    -4.6806  -4.6237  -4.5915  -4.5321  -4.4654  -4.4320  -4.3544  -4.2492
    -4.1234  -4.0254  -3.9664  -3.7939  -3.6085  -3.5016  -3.3563  -3.2799
    -3.2549  -3.1639  -3.1296  -3.0989  -3.0705  -2.9389  -2.9071  -2.7120
    -2.6359  -2.4760  -2.2541  -2.2053  -2.0367  -1.9897  -1.8747  -1.7945
    -1.7305  -1.6915  -1.6268  -1.5797  -1.4598  -1.2744   0.2168   0.3267
     0.9793   1.0684   1.2494   1.3089   1.4321   1.4801   1.5110   1.6101
     1.6868   1.7606   1.7963   1.8700   1.8770   1.9437   2.0310   2.1392
     2.1665   2.2305   2.2819   2.3549

     highest occupied, lowest unoccupied level (ev):    -1.0925    0.1686

!    total energy              =    -497.28224654 Ry
     Harris-Foulkes estimate   =    -497.28224654 Ry
     estimated scf accuracy    <          7.2E-09 Ry

     The total energy is the sum of the following terms:

     one-electron contribution =   -3521.39101059 Ry
     hartree contribution      =    1799.47845626 Ry
     xc contribution           =    -114.53729605 Ry
     ewald contribution        =    1339.53752648 Ry
     Dispersion Correction     =      -0.36992264 Ry

     convergence has been achieved in  22 iterations

     Forces acting on atoms (cartesian axes, Ry/au):

     atom    1 type  1   force =     0.00000114   -0.00008517   -0.00040077
     atom    2 type  2   force =     0.00033804    0.00068709    0.00010567
     atom    3 type  2   force =    -0.00012637    0.00031636   -0.00033680
     atom    4 type  1   force =    -0.00077494   -0.00046995    0.00063829
     atom    5 type  2   force =     0.00075285   -0.00004978    0.00010711
     atom    6 type  2   force =     0.00018803   -0.00027516   -0.00031485
     atom    7 type  1   force =    -0.00006270    0.00003584   -0.00039071
     atom    8 type  2   force =    -0.00000007    0.00000021    0.00016850
     atom    9 type  2   force =     0.00000301   -0.00000182    0.00072942
     atom   10 type  1   force =    -0.00001223   -0.00000834    0.00016365
     atom   11 type  2   force =    -0.00034521    0.00068683    0.00009030
     atom   12 type  2   force =     0.00013385    0.00030470   -0.00032287
     atom   13 type  1   force =     0.00076520   -0.00044242    0.00063051
     atom   14 type  2   force =    -0.00001771    0.00001057   -0.00062136
     atom   15 type  1   force =     0.00001864    0.00090559    0.00063803
     atom   16 type  2   force =     0.00041936   -0.00062728    0.00010816
     atom   17 type  2   force =     0.00033230   -0.00002583   -0.00031563
     atom   18 type  1   force =     0.00002811   -0.00001516    0.00015302
     atom   19 type  2   force =     0.00001215   -0.00000696    0.00049580
     atom   20 type  2   force =    -0.00000346    0.00000233   -0.00062478
     atom   21 type  1   force =     0.00000157    0.00001446    0.00016352
     atom   22 type  2   force =    -0.00076722   -0.00004499    0.00009107
     atom   23 type  2   force =    -0.00019699   -0.00026867   -0.00032352
     atom   24 type  1   force =     0.00007649    0.00004267   -0.00040105
     atom   25 type  2   force =    -0.00042636   -0.00063633    0.00010747
     atom   26 type  2   force =    -0.00033747   -0.00004881   -0.00033821

     Total force =     0.003265     Total SCF correction =     0.000225


     Computing stress (Cartesian axis) and pressure

          total   stress  (Ry/bohr**3)                   (kbar)     P=        0.01
   0.00000156   0.00000002   0.00000000            0.23        0.00        0.00
   0.00000002   0.00000159  -0.00000000            0.00        0.23       -0.00
   0.00000000  -0.00000000  -0.00000292            0.00       -0.00       -0.43


     Writing output data file ./out/3x3_MoS2.save/

     init_run     :   1634.96s CPU   1670.25s WALL (       1 calls)
     electrons    :  16399.37s CPU  16688.86s WALL (       1 calls)
     forces       :    137.94s CPU    138.56s WALL (       1 calls)
     stress       :    179.57s CPU    180.49s WALL (       1 calls)

     Called by init_run:
     wfcinit      :   1629.46s CPU   1664.58s WALL (       1 calls)
     potinit      :      1.83s CPU      1.89s WALL (       1 calls)
     hinit0       :      1.51s CPU      1.57s WALL (       1 calls)

     Called by electrons:
     c_bands      :  15729.88s CPU  15964.07s WALL (      22 calls)
     sum_band     :    660.24s CPU    714.94s WALL (      22 calls)
     v_of_rho     :      2.89s CPU      3.04s WALL (      23 calls)
     mix_rho      :      3.64s CPU      3.85s WALL (      22 calls)

     Called by c_bands:
     init_us_2    :     40.13s CPU     40.64s WALL (    2444 calls)
     cegterg      :  15384.41s CPU  15615.68s WALL (    1144 calls)

     Called by sum_band:

     Called by *egterg:
     h_psi        :   9765.84s CPU  10002.04s WALL (    5003 calls)
     g_psi        :      4.70s CPU      4.77s WALL (    3807 calls)
     cdiaghg      :    260.22s CPU    260.94s WALL (    4951 calls)

     Called by h_psi:
     h_psi:calbec :   3742.60s CPU   3756.81s WALL (    5003 calls)
     vloc_psi     :   3114.29s CPU   3324.71s WALL (    5003 calls)
     add_vuspsi   :   2893.92s CPU   2903.84s WALL (    5003 calls)

     General routines
     calbec       :   3898.56s CPU   3913.39s WALL (    5263 calls)
     fft          :      6.33s CPU      6.77s WALL (     117 calls)
     ffts         :      0.58s CPU      0.65s WALL (      45 calls)
     fftw         :   3468.27s CPU   3718.86s WALL (  735650 calls)
     interpolate  :      1.79s CPU      1.90s WALL (      23 calls)

     Parallel routines
     fft_scatt_xy :    343.80s CPU    362.49s WALL (  735812 calls)
     fft_scatt_yz :   1889.32s CPU   2060.51s WALL (  735812 calls)

     PWSCF        :      5h 5m CPU      5h11m WALL


   This run was terminated on:   1:56:20  25May2022            

=------------------------------------------------------------------------------=
   JOB DONE.
=------------------------------------------------------------------------------=
