
     Program POST-PROC v.6.5Max starts on  8Jun2022 at 14:17:41 

     This program is part of the open-source Quantum ESPRESSO suite
     for quantum simulation of materials; please cite
         "P. Giannozzi et al., J. Phys.:Condens. Matter 21 395502 (2009);
         "P. Giannozzi et al., J. Phys.:Condens. Matter 29 465901 (2017);
          URL http://www.quantum-espresso.org", 
     in publications or presentations arising from this work. More details at
     http://www.quantum-espresso.org/quote

     Parallel version (MPI), running on    16 processors

     MPI processes distributed on     1 nodes
     R & G space division:  proc/nbgrp/npool/nimage =      16

     Reading xml data from directory:

     ./out/3x3_MoS2.save/

     IMPORTANT: XC functional enforced from input :
     Exchange-correlation= PW
                           (   1   4   0   0   0   0   0)
     Any further DFT definition will be discarded
     Please, verify this is what you really want

               file Mo.pw-mt_fhi.UPF: wavefunction(s)  4f renormalized
               file S.pw-mt_fhi.UPF: wavefunction(s)  4f renormalized

     Parallelization info
     --------------------
     sticks:   dense  smooth     PW     G-vecs:    dense   smooth      PW
     Min         781     312     83               138748    35106    4801
     Max         783     313     84               138753    35113    4808
     Sum       12507    4993   1333              2219997   561725   76863


     Calling punch_plot, plot_num =   5
     Use the true wfcs
     Sample bias          = -1.0000 eV

     Occupied bands:     78

       Fermi energy:      -0.46 eV

         Gap energy:      -1.26 eV
     STM          :    102.18s CPU    120.03s WALL (       1 calls)
     Writing data to file  3x3_mos2-1.0
     Reading data from file  3x3_mos2-1.0

     Writing data to be plotted to file 3x3_MoS2-1.0.xsf
     Plot Type: 3D                     Output format: XCrySDen     

     POST-PROC    :   2m 8.16s CPU   2m30.33s WALL


   This run was terminated on:  14:20:12   8Jun2022            

=------------------------------------------------------------------------------=
   JOB DONE.
=------------------------------------------------------------------------------=
