
     Program PWSCF v.6.5Max starts on  8Jun2022 at  1:41: 2 

     This program is part of the open-source Quantum ESPRESSO suite
     for quantum simulation of materials; please cite
         "P. Giannozzi et al., J. Phys.:Condens. Matter 21 395502 (2009);
         "P. Giannozzi et al., J. Phys.:Condens. Matter 29 465901 (2017);
          URL http://www.quantum-espresso.org", 
     in publications or presentations arising from this work. More details at
     http://www.quantum-espresso.org/quote

     Parallel version (MPI), running on    16 processors

     MPI processes distributed on     1 nodes
     R & G space division:  proc/nbgrp/npool/nimage =      16
     Waiting for input...
     Reading input from standard input
Warning: card &CELL ignored
Warning: card CELL_DYNAMICS='BFGS' ignored
Warning: card CELL_FACTOR=2.5 ignored
Warning: card CELL_DOFREE='2DXY' ignored
Warning: card / ignored

     Current dimensions of program PWSCF are:
     Max number of different atomic species (ntypx) = 10
     Max number of k-points (npk) =  40000
     Max angular momentum in pseudopotentials (lmaxx) =  3

     Atomic positions and unit cell read from directory:
     ./out/3x3_MoS2.save/                                                                                                                                                                                                                                            

               file Mo.pw-mt_fhi.UPF: wavefunction(s)  4f renormalized
               file S.pw-mt_fhi.UPF: wavefunction(s)  4f renormalized

     -------------------------------------------------
     Parameters for Dispersion (Grimme-D2) Correction:
     -------------------------------------------------
       atom      VdW radius       C_6     

        Mo         3.097        855.833
        S          3.180        193.230

     Subspace diagonalization in iterative solution of the eigenvalue problem:
     a serial algorithm will be used

     Message from routine setup:
     no reason to have ecutrho>4*ecutwfc

     Parallelization info
     --------------------
     sticks:   dense  smooth     PW     G-vecs:    dense   smooth      PW
     Min         781     312     83               138748    35106    4801
     Max         783     313     84               138753    35113    4808
     Sum       12507    4993   1333              2219997   561725   76863



     bravais-lattice index     =            0
     lattice parameter (alat)  =      17.5735  a.u.
     unit-cell volume          =    8944.6375 (a.u.)^3
     number of atoms/cell      =           26
     number of atomic types    =            2
     number of electrons       =       156.00
     number of Kohn-Sham states=          100
     kinetic-energy cutoff     =      60.0000  Ry
     charge density cutoff     =     600.0000  Ry
     Exchange-correlation= SLA-PW
                           (   1   4   0   0   0   0   0)

     celldm(1)=  17.573519  celldm(2)=   0.000000  celldm(3)=   0.000000
     celldm(4)=   0.000000  celldm(5)=   0.000000  celldm(6)=   0.000000

     crystal axes: (cart. coord. in units of alat)
               a(1) = (   0.988692  -0.000007   0.000000 )  
               a(2) = (  -0.494352   0.856229   0.000000 )  
               a(3) = (   0.000000   0.000000   1.946870 )  

     reciprocal axes: (cart. coord. in units 2 pi/alat)
               b(1) = (  1.011441  0.583965 -0.000000 )  
               b(2) = (  0.000008  1.167916 -0.000000 )  
               b(3) = ( -0.000000 -0.000000  0.513645 )  


     PseudoPot. # 1 for Mo read from file:
     ./Mo.pw-mt_fhi.UPF
     MD5 check sum: 39557091c5c29ab518dcc42d2770f0a9
     Pseudo is Norm-conserving, Zval =  6.0
     Generated using FHI98PP, converted with fhi2upf.x v.5.0.1
     Using radial grid of  541 points,  3 beta functions with: 
                l(1) =   0
                l(2) =   2
                l(3) =   3

     PseudoPot. # 2 for S  read from file:
     ./S.pw-mt_fhi.UPF
     MD5 check sum: 498597b413bac406373b42162ed9f1a5
     Pseudo is Norm-conserving, Zval =  6.0
     Generated using FHI98PP, converted with fhi2upf.x v.5.0.1
     Using radial grid of  501 points,  3 beta functions with: 
                l(1) =   0
                l(2) =   1
                l(3) =   3

     atomic species   valence    mass     pseudopotential
        Mo             6.00    95.95000     Mo( 1.00)
        S              6.00    32.06500     S ( 1.00)

     No symmetry found


                                    s                        frac. trans.

      isym =  1     identity                                     

 cryst.   s( 1) = (     1          0          0      )
                  (     0          1          0      )
                  (     0          0          1      )

 cart.    s( 1) = (  1.0000000  0.0000000  0.0000000 )
                  (  0.0000000  1.0000000  0.0000000 )
                  (  0.0000000  0.0000000  1.0000000 )


   Cartesian axes

     site n.     atom                  positions (alat units)
         1           Mo  tau(   1) = (   0.1647064   0.0967583   1.1993646  )
         2           S   tau(   2) = (   0.0042196   0.1954886   1.3667794  )
         3           S   tau(   3) = (  -0.0022711   0.1911741   1.0332113  )
         4           Mo  tau(   4) = (   0.0049277   0.3825437   1.1964482  )
         5           S   tau(   5) = (  -0.1574222   0.4754597   1.3667727  )
         6           S   tau(   6) = (  -0.1643937   0.4719940   1.0331982  )
         7           Mo  tau(   7) = (  -0.1626858   0.6638053   1.1993550  )
         8           S   tau(   8) = (  -0.3296430   0.7601981   1.3650009  )
         9           S   tau(   9) = (  -0.3296502   0.7602023   1.0338118  )
        10           Mo  tau(  10) = (   0.4943245   0.0942675   1.2033826  )
        11           S   tau(  11) = (   0.3251986   0.1954752   1.3667824  )
        12           S   tau(  12) = (   0.3316793   0.1911732   1.0332058  )
        13           Mo  tau(  13) = (   0.3244913   0.3825334   1.1964554  )
        14           S   tau(  14) = (   0.1647169   0.4747793   1.0279647  )
        15           Mo  tau(  15) = (   0.1647006   0.6592786   1.1964482  )
        16           S   tau(  16) = (   0.0030581   0.7534197   1.3667726  )
        17           S   tau(  17) = (   0.0025738   0.7611900   1.0331982  )
        18           Mo  tau(  18) = (   0.8237765   0.0942710   1.2033927  )
        19           S   tau(  19) = (   0.6590447   0.1893790   1.3713343  )
        20           S   tau(  20) = (   0.6590542   0.1893735   1.0377749  )
        21           Mo  tau(  21) = (   0.6590535   0.3795866   1.2033827  )
        22           S   tau(  22) = (   0.4868421   0.4754501   1.3667824  )
        23           S   tau(  23) = (   0.4938082   0.4719886   1.0332059  )
        24           Mo  tau(  24) = (   0.4920874   0.6637989   1.1993646  )
        25           S   tau(  25) = (   0.3263410   0.7534193   1.3667794  )
        26           S   tau(  26) = (   0.3268321   0.7611977   1.0332113  )

   Crystallographic axes

     site n.     atom                  positions (cryst. coord.)
         1           Mo  tau(   1) = (  0.2230942  0.1130069  0.6160476  )
         2           S   tau(   2) = (  0.1184264  0.2283144  0.7020393  )
         3           S   tau(   3) = (  0.1093419  0.2232753  0.5307037  )
         4           Mo  tau(   4) = (  0.2283763  0.4467790  0.6145496  )
         5           S   tau(   5) = (  0.1184286  0.5552958  0.7020359  )
         6           S   tau(   6) = (  0.1093535  0.5512480  0.5306970  )
         7           Mo  tau(   7) = (  0.2230921  0.7752676  0.6160426  )
         8           S   tau(   8) = (  0.1105148  0.8878449  0.7011258  )
         9           S   tau(   9) = (  0.1105099  0.8878498  0.5310122  )
        10           Mo  tau(  10) = (  0.5550290  0.1101006  0.6181114  )
        11           S   tau(  11) = (  0.4430699  0.2283013  0.7020408  )
        12           S   tau(  12) = (  0.4471125  0.2232770  0.5307010  )
        13           Mo  tau(  13) = (  0.5515901  0.4467697  0.6145532  )
        14           S   tau(  14) = (  0.4438560  0.5545037  0.5280089  )
        15           Mo  tau(  15) = (  0.5515807  0.7699834  0.6145496  )
        16           S   tau(  16) = (  0.4430640  0.8799311  0.7020358  )
        17           S   tau(  17) = (  0.4471117  0.8890062  0.5306970  )
        18           Mo  tau(  18) = (  0.8882523  0.1101075  0.6181166  )
        19           S   tau(  19) = (  0.7771755  0.2211842  0.7043789  )
        20           S   tau(  20) = (  0.7771820  0.2211778  0.5330478  )
        21           Mo  tau(  21) = (  0.8882591  0.4433307  0.6181114  )
        22           S   tau(  22) = (  0.7700584  0.5552899  0.7020408  )
        23           S   tau(  23) = (  0.7750828  0.5512472  0.5307010  )
        24           Mo  tau(  24) = (  0.8853528  0.7752655  0.6160476  )
        25           S   tau(  25) = (  0.7700453  0.8799333  0.7020393  )
        26           S   tau(  26) = (  0.7750844  0.8890178  0.5307037  )

     number of k points=   100
                       cart. coord. in units 2pi/alat
        k(    1) = (   0.0000000   0.0000000   0.0000000), wk =   0.0200000
        k(    2) = (   0.0140477  -0.0081104   0.0000000), wk =   0.0200000
        k(    3) = (   0.0280954  -0.0162209   0.0000000), wk =   0.0200000
        k(    4) = (   0.0421430  -0.0243313   0.0000000), wk =   0.0200000
        k(    5) = (   0.0561907  -0.0324417   0.0000000), wk =   0.0200000
        k(    6) = (   0.0702384  -0.0405521   0.0000000), wk =   0.0200000
        k(    7) = (   0.0842861  -0.0486626   0.0000000), wk =   0.0200000
        k(    8) = (   0.0983337  -0.0567730   0.0000000), wk =   0.0200000
        k(    9) = (   0.1123814  -0.0648834   0.0000000), wk =   0.0200000
        k(   10) = (   0.1264291  -0.0729939   0.0000000), wk =   0.0200000
        k(   11) = (   0.1404768  -0.0811043   0.0000000), wk =   0.0200000
        k(   12) = (   0.1545244  -0.0892147   0.0000000), wk =   0.0200000
        k(   13) = (   0.1685721  -0.0973252   0.0000000), wk =   0.0200000
        k(   14) = (   0.1826198  -0.1054356   0.0000000), wk =   0.0200000
        k(   15) = (   0.1966675  -0.1135460   0.0000000), wk =   0.0200000
        k(   16) = (   0.2107152  -0.1216564   0.0000000), wk =   0.0200000
        k(   17) = (   0.2247628  -0.1297669   0.0000000), wk =   0.0200000
        k(   18) = (   0.2388105  -0.1378773   0.0000000), wk =   0.0200000
        k(   19) = (   0.2528582  -0.1459877   0.0000000), wk =   0.0200000
        k(   20) = (   0.2669059  -0.1540982   0.0000000), wk =   0.0200000
        k(   21) = (   0.2809535  -0.1622086   0.0000000), wk =   0.0200000
        k(   22) = (   0.2950012  -0.1703190   0.0000000), wk =   0.0200000
        k(   23) = (   0.3090489  -0.1784295   0.0000000), wk =   0.0200000
        k(   24) = (   0.3230966  -0.1865399   0.0000000), wk =   0.0200000
        k(   25) = (   0.3371442  -0.1946503   0.0000000), wk =   0.0200000
        k(   26) = (   0.3511919  -0.2027607   0.0000000), wk =   0.0200000
        k(   27) = (   0.3652396  -0.2108712   0.0000000), wk =   0.0200000
        k(   28) = (   0.3792873  -0.2189816   0.0000000), wk =   0.0200000
        k(   29) = (   0.3933349  -0.2270920   0.0000000), wk =   0.0200000
        k(   30) = (   0.4073826  -0.2352025   0.0000000), wk =   0.0200000
        k(   31) = (   0.4214303  -0.2433129   0.0000000), wk =   0.0200000
        k(   32) = (   0.4354780  -0.2514233   0.0000000), wk =   0.0200000
        k(   33) = (   0.4495257  -0.2595338   0.0000000), wk =   0.0200000
        k(   34) = (   0.4635733  -0.2676442   0.0000000), wk =   0.0200000
        k(   35) = (   0.4776210  -0.2757546   0.0000000), wk =   0.0200000
        k(   36) = (   0.4916687  -0.2838650   0.0000000), wk =   0.0200000
        k(   37) = (   0.5057164  -0.2919755   0.0000000), wk =   0.0200000
        k(   38) = (   0.4976888  -0.3058796   0.0000000), wk =   0.0200000
        k(   39) = (   0.4896613  -0.3197837   0.0000000), wk =   0.0200000
        k(   40) = (   0.4816338  -0.3336878   0.0000000), wk =   0.0200000
        k(   41) = (   0.4736062  -0.3475919   0.0000000), wk =   0.0200000
        k(   42) = (   0.4655787  -0.3614960   0.0000000), wk =   0.0200000
        k(   43) = (   0.4575512  -0.3754001   0.0000000), wk =   0.0200000
        k(   44) = (   0.4495236  -0.3893042   0.0000000), wk =   0.0200000
        k(   45) = (   0.4414961  -0.4032083   0.0000000), wk =   0.0200000
        k(   46) = (   0.4334685  -0.4171124   0.0000000), wk =   0.0200000
        k(   47) = (   0.4254410  -0.4310165   0.0000000), wk =   0.0200000
        k(   48) = (   0.4174135  -0.4449206   0.0000000), wk =   0.0200000
        k(   49) = (   0.4093859  -0.4588247   0.0000000), wk =   0.0200000
        k(   50) = (   0.4013584  -0.4727288   0.0000000), wk =   0.0200000
        k(   51) = (   0.3933309  -0.4866329   0.0000000), wk =   0.0200000
        k(   52) = (   0.3853033  -0.5005369   0.0000000), wk =   0.0200000
        k(   53) = (   0.3772758  -0.5144410   0.0000000), wk =   0.0200000
        k(   54) = (   0.3692483  -0.5283451   0.0000000), wk =   0.0200000
        k(   55) = (   0.3612207  -0.5422492   0.0000000), wk =   0.0200000
        k(   56) = (   0.3531932  -0.5561533   0.0000000), wk =   0.0200000
        k(   57) = (   0.3451657  -0.5700574   0.0000000), wk =   0.0200000
        k(   58) = (   0.3371381  -0.5839615   0.0000000), wk =   0.0200000
        k(   59) = (   0.3291110  -0.5700577   0.0000000), wk =   0.0200000
        k(   60) = (   0.3210839  -0.5561538   0.0000000), wk =   0.0200000
        k(   61) = (   0.3130568  -0.5422500   0.0000000), wk =   0.0200000
        k(   62) = (   0.3050297  -0.5283462   0.0000000), wk =   0.0200000
        k(   63) = (   0.2970026  -0.5144423   0.0000000), wk =   0.0200000
        k(   64) = (   0.2889755  -0.5005385   0.0000000), wk =   0.0200000
        k(   65) = (   0.2809484  -0.4866346   0.0000000), wk =   0.0200000
        k(   66) = (   0.2729213  -0.4727308   0.0000000), wk =   0.0200000
        k(   67) = (   0.2648942  -0.4588269   0.0000000), wk =   0.0200000
        k(   68) = (   0.2568671  -0.4449231   0.0000000), wk =   0.0200000
        k(   69) = (   0.2488400  -0.4310192   0.0000000), wk =   0.0200000
        k(   70) = (   0.2408129  -0.4171154   0.0000000), wk =   0.0200000
        k(   71) = (   0.2327858  -0.4032115   0.0000000), wk =   0.0200000
        k(   72) = (   0.2247587  -0.3893077   0.0000000), wk =   0.0200000
        k(   73) = (   0.2167317  -0.3754038   0.0000000), wk =   0.0200000
        k(   74) = (   0.2087046  -0.3615000   0.0000000), wk =   0.0200000
        k(   75) = (   0.2006775  -0.3475962   0.0000000), wk =   0.0200000
        k(   76) = (   0.1926504  -0.3336923   0.0000000), wk =   0.0200000
        k(   77) = (   0.1846233  -0.3197885   0.0000000), wk =   0.0200000
        k(   78) = (   0.1765962  -0.3058846   0.0000000), wk =   0.0200000
        k(   79) = (   0.1685691  -0.2919808   0.0000000), wk =   0.0200000
        k(   80) = (   0.1605420  -0.2780769   0.0000000), wk =   0.0200000
        k(   81) = (   0.1525149  -0.2641731   0.0000000), wk =   0.0200000
        k(   82) = (   0.1444878  -0.2502692   0.0000000), wk =   0.0200000
        k(   83) = (   0.1364607  -0.2363654   0.0000000), wk =   0.0200000
        k(   84) = (   0.1284336  -0.2224615   0.0000000), wk =   0.0200000
        k(   85) = (   0.1204065  -0.2085577   0.0000000), wk =   0.0200000
        k(   86) = (   0.1123794  -0.1946538   0.0000000), wk =   0.0200000
        k(   87) = (   0.1043523  -0.1807500   0.0000000), wk =   0.0200000
        k(   88) = (   0.0963252  -0.1668462   0.0000000), wk =   0.0200000
        k(   89) = (   0.0882981  -0.1529423   0.0000000), wk =   0.0200000
        k(   90) = (   0.0802710  -0.1390385   0.0000000), wk =   0.0200000
        k(   91) = (   0.0722439  -0.1251346   0.0000000), wk =   0.0200000
        k(   92) = (   0.0642168  -0.1112308   0.0000000), wk =   0.0200000
        k(   93) = (   0.0561897  -0.0973269   0.0000000), wk =   0.0200000
        k(   94) = (   0.0481626  -0.0834231   0.0000000), wk =   0.0200000
        k(   95) = (   0.0401355  -0.0695192   0.0000000), wk =   0.0200000
        k(   96) = (   0.0321084  -0.0556154   0.0000000), wk =   0.0200000
        k(   97) = (   0.0240813  -0.0417115   0.0000000), wk =   0.0200000
        k(   98) = (   0.0160542  -0.0278077   0.0000000), wk =   0.0200000
        k(   99) = (   0.0080271  -0.0139038   0.0000000), wk =   0.0200000
        k(  100) = (   0.0000000   0.0000000   0.0000000), wk =   0.0200000

                       cryst. coord.
        k(    1) = (   0.0000000   0.0000000   0.0000000), wk =   0.0200000
        k(    2) = (   0.0138889  -0.0138889   0.0000000), wk =   0.0200000
        k(    3) = (   0.0277778  -0.0277778   0.0000000), wk =   0.0200000
        k(    4) = (   0.0416667  -0.0416667   0.0000000), wk =   0.0200000
        k(    5) = (   0.0555556  -0.0555556   0.0000000), wk =   0.0200000
        k(    6) = (   0.0694444  -0.0694444   0.0000000), wk =   0.0200000
        k(    7) = (   0.0833333  -0.0833333   0.0000000), wk =   0.0200000
        k(    8) = (   0.0972222  -0.0972222   0.0000000), wk =   0.0200000
        k(    9) = (   0.1111111  -0.1111111   0.0000000), wk =   0.0200000
        k(   10) = (   0.1250000  -0.1250000   0.0000000), wk =   0.0200000
        k(   11) = (   0.1388889  -0.1388889   0.0000000), wk =   0.0200000
        k(   12) = (   0.1527778  -0.1527778   0.0000000), wk =   0.0200000
        k(   13) = (   0.1666667  -0.1666667   0.0000000), wk =   0.0200000
        k(   14) = (   0.1805556  -0.1805556   0.0000000), wk =   0.0200000
        k(   15) = (   0.1944444  -0.1944444   0.0000000), wk =   0.0200000
        k(   16) = (   0.2083333  -0.2083333   0.0000000), wk =   0.0200000
        k(   17) = (   0.2222222  -0.2222222   0.0000000), wk =   0.0200000
        k(   18) = (   0.2361111  -0.2361111   0.0000000), wk =   0.0200000
        k(   19) = (   0.2500000  -0.2500000   0.0000000), wk =   0.0200000
        k(   20) = (   0.2638889  -0.2638889   0.0000000), wk =   0.0200000
        k(   21) = (   0.2777778  -0.2777778   0.0000000), wk =   0.0200000
        k(   22) = (   0.2916667  -0.2916667   0.0000000), wk =   0.0200000
        k(   23) = (   0.3055556  -0.3055556   0.0000000), wk =   0.0200000
        k(   24) = (   0.3194444  -0.3194444   0.0000000), wk =   0.0200000
        k(   25) = (   0.3333333  -0.3333333   0.0000000), wk =   0.0200000
        k(   26) = (   0.3472222  -0.3472222   0.0000000), wk =   0.0200000
        k(   27) = (   0.3611111  -0.3611111   0.0000000), wk =   0.0200000
        k(   28) = (   0.3750000  -0.3750000   0.0000000), wk =   0.0200000
        k(   29) = (   0.3888889  -0.3888889   0.0000000), wk =   0.0200000
        k(   30) = (   0.4027778  -0.4027778   0.0000000), wk =   0.0200000
        k(   31) = (   0.4166667  -0.4166667   0.0000000), wk =   0.0200000
        k(   32) = (   0.4305556  -0.4305556   0.0000000), wk =   0.0200000
        k(   33) = (   0.4444444  -0.4444444   0.0000000), wk =   0.0200000
        k(   34) = (   0.4583333  -0.4583333   0.0000000), wk =   0.0200000
        k(   35) = (   0.4722222  -0.4722222   0.0000000), wk =   0.0200000
        k(   36) = (   0.4861111  -0.4861111   0.0000000), wk =   0.0200000
        k(   37) = (   0.5000000  -0.5000000   0.0000000), wk =   0.0200000
        k(   38) = (   0.4920633  -0.5079367   0.0000000), wk =   0.0200000
        k(   39) = (   0.4841267  -0.5158733   0.0000000), wk =   0.0200000
        k(   40) = (   0.4761900  -0.5238100   0.0000000), wk =   0.0200000
        k(   41) = (   0.4682533  -0.5317467   0.0000000), wk =   0.0200000
        k(   42) = (   0.4603167  -0.5396833   0.0000000), wk =   0.0200000
        k(   43) = (   0.4523800  -0.5476200   0.0000000), wk =   0.0200000
        k(   44) = (   0.4444433  -0.5555567   0.0000000), wk =   0.0200000
        k(   45) = (   0.4365067  -0.5634933   0.0000000), wk =   0.0200000
        k(   46) = (   0.4285700  -0.5714300   0.0000000), wk =   0.0200000
        k(   47) = (   0.4206333  -0.5793667   0.0000000), wk =   0.0200000
        k(   48) = (   0.4126967  -0.5873033   0.0000000), wk =   0.0200000
        k(   49) = (   0.4047600  -0.5952400   0.0000000), wk =   0.0200000
        k(   50) = (   0.3968233  -0.6031767   0.0000000), wk =   0.0200000
        k(   51) = (   0.3888867  -0.6111133   0.0000000), wk =   0.0200000
        k(   52) = (   0.3809500  -0.6190500   0.0000000), wk =   0.0200000
        k(   53) = (   0.3730133  -0.6269867   0.0000000), wk =   0.0200000
        k(   54) = (   0.3650767  -0.6349233   0.0000000), wk =   0.0200000
        k(   55) = (   0.3571400  -0.6428600   0.0000000), wk =   0.0200000
        k(   56) = (   0.3492033  -0.6507967   0.0000000), wk =   0.0200000
        k(   57) = (   0.3412667  -0.6587333   0.0000000), wk =   0.0200000
        k(   58) = (   0.3333300  -0.6666700   0.0000000), wk =   0.0200000
        k(   59) = (   0.3253936  -0.6507969   0.0000000), wk =   0.0200000
        k(   60) = (   0.3174571  -0.6349238   0.0000000), wk =   0.0200000
        k(   61) = (   0.3095207  -0.6190507   0.0000000), wk =   0.0200000
        k(   62) = (   0.3015843  -0.6031776   0.0000000), wk =   0.0200000
        k(   63) = (   0.2936479  -0.5873045   0.0000000), wk =   0.0200000
        k(   64) = (   0.2857114  -0.5714314   0.0000000), wk =   0.0200000
        k(   65) = (   0.2777750  -0.5555583   0.0000000), wk =   0.0200000
        k(   66) = (   0.2698386  -0.5396852   0.0000000), wk =   0.0200000
        k(   67) = (   0.2619021  -0.5238121   0.0000000), wk =   0.0200000
        k(   68) = (   0.2539657  -0.5079390   0.0000000), wk =   0.0200000
        k(   69) = (   0.2460293  -0.4920660   0.0000000), wk =   0.0200000
        k(   70) = (   0.2380929  -0.4761929   0.0000000), wk =   0.0200000
        k(   71) = (   0.2301564  -0.4603198   0.0000000), wk =   0.0200000
        k(   72) = (   0.2222200  -0.4444467   0.0000000), wk =   0.0200000
        k(   73) = (   0.2142836  -0.4285736   0.0000000), wk =   0.0200000
        k(   74) = (   0.2063471  -0.4127005   0.0000000), wk =   0.0200000
        k(   75) = (   0.1984107  -0.3968274   0.0000000), wk =   0.0200000
        k(   76) = (   0.1904743  -0.3809543   0.0000000), wk =   0.0200000
        k(   77) = (   0.1825379  -0.3650812   0.0000000), wk =   0.0200000
        k(   78) = (   0.1746014  -0.3492081   0.0000000), wk =   0.0200000
        k(   79) = (   0.1666650  -0.3333350   0.0000000), wk =   0.0200000
        k(   80) = (   0.1587286  -0.3174619   0.0000000), wk =   0.0200000
        k(   81) = (   0.1507921  -0.3015888   0.0000000), wk =   0.0200000
        k(   82) = (   0.1428557  -0.2857157   0.0000000), wk =   0.0200000
        k(   83) = (   0.1349193  -0.2698426   0.0000000), wk =   0.0200000
        k(   84) = (   0.1269829  -0.2539695   0.0000000), wk =   0.0200000
        k(   85) = (   0.1190464  -0.2380964   0.0000000), wk =   0.0200000
        k(   86) = (   0.1111100  -0.2222233   0.0000000), wk =   0.0200000
        k(   87) = (   0.1031736  -0.2063502   0.0000000), wk =   0.0200000
        k(   88) = (   0.0952371  -0.1904771   0.0000000), wk =   0.0200000
        k(   89) = (   0.0873007  -0.1746040   0.0000000), wk =   0.0200000
        k(   90) = (   0.0793643  -0.1587310   0.0000000), wk =   0.0200000
        k(   91) = (   0.0714279  -0.1428579   0.0000000), wk =   0.0200000
        k(   92) = (   0.0634914  -0.1269848   0.0000000), wk =   0.0200000
        k(   93) = (   0.0555550  -0.1111117   0.0000000), wk =   0.0200000
        k(   94) = (   0.0476186  -0.0952386   0.0000000), wk =   0.0200000
        k(   95) = (   0.0396821  -0.0793655   0.0000000), wk =   0.0200000
        k(   96) = (   0.0317457  -0.0634924   0.0000000), wk =   0.0200000
        k(   97) = (   0.0238093  -0.0476193   0.0000000), wk =   0.0200000
        k(   98) = (   0.0158729  -0.0317462   0.0000000), wk =   0.0200000
        k(   99) = (   0.0079364  -0.0158731   0.0000000), wk =   0.0200000
        k(  100) = (   0.0000000   0.0000000   0.0000000), wk =   0.0200000

     Dense  grid:  2219997 G-vectors     FFT dimensions: ( 135, 135, 270)

     Smooth grid:   561725 G-vectors     FFT dimensions: (  90,  90, 180)

     Dynamical RAM for                 wfc:       6.69 MB

     Dynamical RAM for     wfc (w. buffer):       6.69 MB

     Dynamical RAM for           str. fact:       4.23 MB

     Dynamical RAM for           local pot:       0.00 MB

     Dynamical RAM for          nlocal pot:      20.35 MB

     Dynamical RAM for                qrad:       4.39 MB

     Dynamical RAM for          rho,v,vnew:      13.44 MB

     Dynamical RAM for           G-vectors:       8.21 MB

     Dynamical RAM for          h,s,v(r/c):       7.32 MB

     Dynamical RAM for          <psi|beta>:       0.46 MB

     Dynamical RAM for                 psi:      26.78 MB

     Dynamical RAM for                hpsi:      26.78 MB

     Dynamical RAM for      wfcinit/wfcrot:      59.66 MB

     Estimated static dynamical RAM per process >      75.49 MB

     Estimated max dynamical RAM per process >     136.83 MB

     Estimated total dynamical RAM >       2.14 GB

     The potential is recalculated from file :
     ./out/3x3_MoS2.save/charge-density

     Starting wfcs are  416 randomized atomic wfcs

     Band Structure Calculation
     Davidson diagonalization with overlap

     Computing kpt #:     1  of   100
     c_bands:  1 eigenvalues not converged
     total cpu time spent up to now is      494.3 secs

     Computing kpt #:     2  of   100
     c_bands:  1 eigenvalues not converged
     total cpu time spent up to now is      981.3 secs

     Computing kpt #:     3  of   100
     c_bands:  1 eigenvalues not converged
     total cpu time spent up to now is     1439.3 secs

     Computing kpt #:     4  of   100
     total cpu time spent up to now is     1937.0 secs

     Computing kpt #:     5  of   100
     total cpu time spent up to now is     2381.3 secs

     Computing kpt #:     6  of   100
     total cpu time spent up to now is     2782.2 secs

     Computing kpt #:     7  of   100
     total cpu time spent up to now is     3191.7 secs

     Computing kpt #:     8  of   100
     total cpu time spent up to now is     3613.0 secs

     Computing kpt #:     9  of   100
     total cpu time spent up to now is     3995.2 secs

     Computing kpt #:    10  of   100
     total cpu time spent up to now is     4368.4 secs

     Computing kpt #:    11  of   100
     total cpu time spent up to now is     4746.6 secs

     Computing kpt #:    12  of   100
     total cpu time spent up to now is     5129.4 secs

     Computing kpt #:    13  of   100
     total cpu time spent up to now is     5502.4 secs

     Computing kpt #:    14  of   100
     total cpu time spent up to now is     5896.8 secs

     Computing kpt #:    15  of   100
     total cpu time spent up to now is     6263.9 secs

     Computing kpt #:    16  of   100
     total cpu time spent up to now is     6658.2 secs

     Computing kpt #:    17  of   100
     total cpu time spent up to now is     7050.5 secs

     Computing kpt #:    18  of   100
     total cpu time spent up to now is     7491.0 secs

     Computing kpt #:    19  of   100
     total cpu time spent up to now is     7843.5 secs

     Computing kpt #:    20  of   100
     total cpu time spent up to now is     8242.5 secs

     Computing kpt #:    21  of   100
     total cpu time spent up to now is     8638.6 secs

     Computing kpt #:    22  of   100
     total cpu time spent up to now is     9016.0 secs

     Computing kpt #:    23  of   100
     total cpu time spent up to now is     9417.5 secs

     Computing kpt #:    24  of   100
     total cpu time spent up to now is     9782.7 secs

     Computing kpt #:    25  of   100
     total cpu time spent up to now is    10144.6 secs

     Computing kpt #:    26  of   100
     total cpu time spent up to now is    10499.4 secs

     Computing kpt #:    27  of   100
     total cpu time spent up to now is    10860.4 secs

     Computing kpt #:    28  of   100
     total cpu time spent up to now is    11244.0 secs

     Computing kpt #:    29  of   100
     total cpu time spent up to now is    11665.4 secs

     Computing kpt #:    30  of   100
     total cpu time spent up to now is    12013.3 secs

     Computing kpt #:    31  of   100
     total cpu time spent up to now is    12362.4 secs

     Computing kpt #:    32  of   100
     total cpu time spent up to now is    12737.5 secs

     Computing kpt #:    33  of   100
     total cpu time spent up to now is    13237.9 secs

     Computing kpt #:    34  of   100
     total cpu time spent up to now is    13716.0 secs

     Computing kpt #:    35  of   100
     total cpu time spent up to now is    14102.9 secs

     Computing kpt #:    36  of   100
     total cpu time spent up to now is    14447.4 secs

     Computing kpt #:    37  of   100
     total cpu time spent up to now is    14780.7 secs

     Computing kpt #:    38  of   100
     total cpu time spent up to now is    15112.1 secs

     Computing kpt #:    39  of   100
     total cpu time spent up to now is    15438.9 secs

     Computing kpt #:    40  of   100
     total cpu time spent up to now is    15793.7 secs

     Computing kpt #:    41  of   100
     total cpu time spent up to now is    16139.2 secs

     Computing kpt #:    42  of   100
     total cpu time spent up to now is    16490.8 secs

     Computing kpt #:    43  of   100
     total cpu time spent up to now is    16840.4 secs

     Computing kpt #:    44  of   100
     total cpu time spent up to now is    17173.4 secs

     Computing kpt #:    45  of   100
     total cpu time spent up to now is    17498.7 secs

     Computing kpt #:    46  of   100
     total cpu time spent up to now is    17823.8 secs

     Computing kpt #:    47  of   100
     total cpu time spent up to now is    18155.8 secs

     Computing kpt #:    48  of   100
     total cpu time spent up to now is    18514.0 secs

     Computing kpt #:    49  of   100
     total cpu time spent up to now is    18842.9 secs

     Computing kpt #:    50  of   100
     total cpu time spent up to now is    19166.9 secs

     Computing kpt #:    51  of   100
     total cpu time spent up to now is    19488.3 secs

     Computing kpt #:    52  of   100
     total cpu time spent up to now is    19835.0 secs

     Computing kpt #:    53  of   100
     total cpu time spent up to now is    20171.0 secs

     Computing kpt #:    54  of   100
     total cpu time spent up to now is    20489.4 secs

     Computing kpt #:    55  of   100
     total cpu time spent up to now is    20806.3 secs

     Computing kpt #:    56  of   100
     total cpu time spent up to now is    21129.9 secs

     Computing kpt #:    57  of   100
     total cpu time spent up to now is    21455.6 secs

     Computing kpt #:    58  of   100
     total cpu time spent up to now is    21786.1 secs

     Computing kpt #:    59  of   100
     total cpu time spent up to now is    22116.5 secs

     Computing kpt #:    60  of   100
     total cpu time spent up to now is    22469.9 secs

     Computing kpt #:    61  of   100
     total cpu time spent up to now is    22866.7 secs

     Computing kpt #:    62  of   100
     total cpu time spent up to now is    23241.0 secs

     Computing kpt #:    63  of   100
     total cpu time spent up to now is    23589.2 secs

     Computing kpt #:    64  of   100
     total cpu time spent up to now is    23949.8 secs

     Computing kpt #:    65  of   100
     total cpu time spent up to now is    24323.2 secs

     Computing kpt #:    66  of   100
     total cpu time spent up to now is    24689.1 secs

     Computing kpt #:    67  of   100
     total cpu time spent up to now is    25019.3 secs

     Computing kpt #:    68  of   100
     total cpu time spent up to now is    25375.2 secs

     Computing kpt #:    69  of   100
     total cpu time spent up to now is    25714.4 secs

     Computing kpt #:    70  of   100
     total cpu time spent up to now is    26056.6 secs

     Computing kpt #:    71  of   100
     total cpu time spent up to now is    26389.1 secs

     Computing kpt #:    72  of   100
     total cpu time spent up to now is    26733.3 secs

     Computing kpt #:    73  of   100
     total cpu time spent up to now is    27070.6 secs

     Computing kpt #:    74  of   100
     total cpu time spent up to now is    27401.9 secs

     Computing kpt #:    75  of   100
     total cpu time spent up to now is    27736.6 secs

     Computing kpt #:    76  of   100
     total cpu time spent up to now is    28074.8 secs

     Computing kpt #:    77  of   100
     total cpu time spent up to now is    28445.9 secs

     Computing kpt #:    78  of   100
     total cpu time spent up to now is    28809.0 secs

     Computing kpt #:    79  of   100
     total cpu time spent up to now is    29142.6 secs

     Computing kpt #:    80  of   100
     total cpu time spent up to now is    29490.2 secs

     Computing kpt #:    81  of   100
     total cpu time spent up to now is    29827.3 secs

     Computing kpt #:    82  of   100
     total cpu time spent up to now is    30165.9 secs

     Computing kpt #:    83  of   100
     total cpu time spent up to now is    30525.6 secs

     Computing kpt #:    84  of   100
     total cpu time spent up to now is    30887.5 secs

     Computing kpt #:    85  of   100
     total cpu time spent up to now is    31253.3 secs

     Computing kpt #:    86  of   100
     total cpu time spent up to now is    31616.3 secs

     Computing kpt #:    87  of   100
     total cpu time spent up to now is    31965.6 secs

     Computing kpt #:    88  of   100
     total cpu time spent up to now is    32324.7 secs

     Computing kpt #:    89  of   100
     total cpu time spent up to now is    32681.9 secs

     Computing kpt #:    90  of   100
     total cpu time spent up to now is    33042.0 secs

     Computing kpt #:    91  of   100
     total cpu time spent up to now is    33377.6 secs

     Computing kpt #:    92  of   100
     total cpu time spent up to now is    33744.5 secs

     Computing kpt #:    93  of   100
     total cpu time spent up to now is    34093.5 secs

     Computing kpt #:    94  of   100
     total cpu time spent up to now is    34445.0 secs

     Computing kpt #:    95  of   100
     total cpu time spent up to now is    34801.7 secs

     Computing kpt #:    96  of   100
     total cpu time spent up to now is    35176.3 secs

     Computing kpt #:    97  of   100
     c_bands:  1 eigenvalues not converged
     total cpu time spent up to now is    35649.8 secs

     Computing kpt #:    98  of   100
     total cpu time spent up to now is    36047.3 secs

     Computing kpt #:    99  of   100
     c_bands:  1 eigenvalues not converged
     total cpu time spent up to now is    36501.4 secs

     Computing kpt #:   100  of   100
     c_bands:  1 eigenvalues not converged
     total cpu time spent up to now is    36928.1 secs

     ethr =  6.41E-12,  avg # of iterations = 43.2

     total cpu time spent up to now is    36928.1 secs

     End of band structure calculation

          k = 0.0000 0.0000 0.0000 ( 70261 PWs)   bands (ev):

   -15.6196 -14.4355 -14.2844 -14.2843 -14.2259 -14.2098 -14.2095 -13.9441
   -13.6687 -13.6687 -13.5908 -13.5678 -13.5677 -13.3315 -13.2568 -13.0896
   -12.9897  -7.0699  -6.8737  -6.8737  -6.8058  -6.7449  -6.7448  -6.6267
    -6.5581  -6.5580  -5.9942  -5.9940  -5.8092  -5.6944  -5.6944  -5.6667
    -5.6505  -5.6505  -5.4072  -5.4070  -5.3313  -5.2422  -5.2421  -5.0550
    -4.9527  -4.9527  -4.8566  -4.4432  -4.3608  -4.3607  -4.0196  -3.9475
    -3.9473  -3.9432  -3.7656  -3.7654  -3.4787  -3.3872  -3.3098  -3.3095
    -3.1578  -2.9799  -2.9624  -2.9623  -2.8370  -2.8369  -2.4863  -2.4860
    -2.4386  -2.4073  -2.4072  -2.3812  -2.3042  -2.2972  -2.2972  -2.2677
    -2.1493  -2.1492  -1.5371  -1.1893  -1.1893  -1.0924   0.1787   0.1789
     0.9786   0.9788   1.3408   1.3732   1.3733   1.3821   1.4223   1.4224
     1.5602   1.5603   1.5950   1.6496   1.8480   1.8481   2.0135   2.0135
     2.2219   2.2220   2.4187   2.5935

          k = 0.0140-0.0081 0.0000 ( 70265 PWs)   bands (ev):

   -15.6192 -14.4354 -14.2889 -14.2872 -14.2379 -14.2065 -14.1941 -13.9433
   -13.6695 -13.6694 -13.5957 -13.5668 -13.5621 -13.3315 -13.2571 -13.0898
   -12.9899  -7.0696  -6.8739  -6.8734  -6.8096  -6.7453  -6.7426  -6.6277
    -6.5575  -6.5553  -5.9985  -5.9981  -5.8129  -5.6914  -5.6887  -5.6769
    -5.6502  -5.6390  -5.4059  -5.4058  -5.3311  -5.2421  -5.2420  -5.0552
    -4.9524  -4.9520  -4.8561  -4.4440  -4.3614  -4.3602  -4.0225  -3.9487
    -3.9475  -3.9418  -3.7665  -3.7651  -3.4787  -3.3876  -3.3117  -3.3086
    -3.1568  -2.9808  -2.9622  -2.9615  -2.8362  -2.8353  -2.4882  -2.4876
    -2.4461  -2.4167  -2.4020  -2.3718  -2.3043  -2.2988  -2.2951  -2.2668
    -2.1483  -2.1459  -1.5370  -1.1900  -1.1900  -1.0927   0.1790   0.1792
     0.9794   0.9796   1.3349   1.3675   1.3764   1.3827   1.4241   1.4268
     1.5582   1.5607   1.5989   1.6505   1.8480   1.8486   2.0135   2.0140
     2.2211   2.2220   2.4170   2.5922

          k = 0.0281-0.0162 0.0000 ( 70239 PWs)   bands (ev):

   -15.6182 -14.4354 -14.3025 -14.2945 -14.2495 -14.1983 -14.1711 -13.9407
   -13.6722 -13.6713 -13.6043 -13.5644 -13.5510 -13.3316 -13.2580 -13.0903
   -12.9905  -7.0685  -6.8748  -6.8725  -6.8193  -6.7468  -6.7374  -6.6299
    -6.5557  -6.5479  -6.0107  -6.0097  -5.8226  -5.6921  -5.6843  -5.6725
    -5.6478  -5.6210  -5.4027  -5.4017  -5.3305  -5.2420  -5.2417  -5.0559
    -4.9514  -4.9500  -4.8543  -4.4461  -4.3632  -4.3586  -4.0306  -3.9523
    -3.9495  -3.9368  -3.7691  -3.7643  -3.4787  -3.3888  -3.3172  -3.3058
    -3.1537  -2.9836  -2.9610  -2.9588  -2.8341  -2.8303  -2.4949  -2.4920
    -2.4612  -2.4321  -2.3935  -2.3563  -2.3042  -2.3033  -2.2901  -2.2625
    -2.1453  -2.1368  -1.5367  -1.1921  -1.1921  -1.0936   0.1798   0.1798
     0.9817   0.9821   1.3218   1.3557   1.3813   1.3821   1.4289   1.4373
     1.5543   1.5620   1.6086   1.6533   1.8483   1.8499   2.0138   2.0157
     2.2185   2.2221   2.4120   2.5879

          k = 0.0421-0.0243 0.0000 ( 70243 PWs)   bands (ev):

   -15.6166 -14.4353 -14.3230 -14.3044 -14.2567 -14.1868 -14.1473 -13.9366
   -13.6768 -13.6743 -13.6125 -13.5604 -13.5383 -13.3317 -13.2594 -13.0913
   -12.9916  -7.0668  -6.8770  -6.8710  -6.8318  -6.7491  -6.7321  -6.6316
    -6.5529  -6.5373  -6.0295  -6.0272  -5.8359  -5.7063  -5.6789  -5.6510
    -5.6393  -5.6011  -5.3973  -5.3950  -5.3295  -5.2416  -5.2413  -5.0569
    -4.9498  -4.9467  -4.8514  -4.4494  -4.3661  -4.3562  -4.0422  -3.9581
    -3.9536  -3.9295  -3.7736  -3.7628  -3.4787  -3.3907  -3.3260  -3.3015
    -3.1491  -2.9885  -2.9582  -2.9546  -2.8304  -2.8229  -2.5065  -2.5002
    -2.4778  -2.4465  -2.3878  -2.3417  -2.3122  -2.2994  -2.2830  -2.2540
    -2.1404  -2.1237  -1.5362  -1.1956  -1.1955  -1.0949   0.1809   0.1811
     0.9856   0.9862   1.3060   1.3417   1.3800   1.3847   1.4351   1.4500
     1.5523   1.5642   1.6210   1.6580   1.8487   1.8521   2.0142   2.0184
     2.2143   2.2222   2.4040   2.5809

          k = 0.0562-0.0324 0.0000 ( 70231 PWs)   bands (ev):

   -15.6143 -14.4356 -14.3465 -14.3157 -14.2619 -14.1735 -14.1236 -13.9310
   -13.6836 -13.6781 -13.6191 -13.5553 -13.5252 -13.3319 -13.2615 -13.0926
   -12.9931  -7.0645  -6.8817  -6.8690  -6.8441  -6.7522  -6.7284  -6.6312
    -6.5491  -6.5249  -6.0529  -6.0490  -5.8514  -5.7198  -5.6791  -5.6270
    -5.6222  -5.5790  -5.3901  -5.3862  -5.3279  -5.2411  -5.2406  -5.0583
    -4.9477  -4.9419  -4.8471  -4.4536  -4.3700  -4.3531  -4.0561  -3.9662
    -3.9593  -3.9216  -3.7797  -3.7607  -3.4787  -3.3928  -3.3377  -3.2957
    -3.1435  -2.9949  -2.9536  -2.9491  -2.8253  -2.8138  -2.5233  -2.5127
    -2.4937  -2.4579  -2.3880  -2.3300  -2.3190  -2.2915  -2.2740  -2.2422
    -2.1337  -2.1082  -1.5356  -1.2005  -1.2003  -1.0969   0.1825   0.1829
     0.9908   0.9919   1.2892   1.3269   1.3770   1.3863   1.4401   1.4634
     1.5542   1.5672   1.6349   1.6643   1.8492   1.8551   2.0148   2.0222
     2.2084   2.2224   2.3933   2.5713

          k = 0.0702-0.0406 0.0000 ( 70241 PWs)   bands (ev):

   -15.6114 -14.4368 -14.3705 -14.3275 -14.2665 -14.1591 -14.1002 -13.9240
   -13.6922 -13.6826 -13.6240 -13.5491 -13.5119 -13.3321 -13.2641 -13.0942
   -12.9950  -7.0614  -6.8911  -6.8666  -6.8532  -6.7557  -6.7269  -6.6282
    -6.5445  -6.5114  -6.0794  -6.0734  -5.8686  -5.7328  -5.6834  -5.6031
    -5.5996  -5.5542  -5.3811  -5.3760  -5.3255  -5.2403  -5.2397  -5.0600
    -4.9450  -4.9357  -4.8414  -4.4586  -4.3751  -4.3496  -4.0716  -3.9762
    -3.9666  -3.9138  -3.7876  -3.7577  -3.4790  -3.3949  -3.3517  -3.2889
    -3.1372  -3.0020  -2.9475  -2.9426  -2.8186  -2.8038  -2.5442  -2.5290
    -2.5089  -2.4663  -2.3962  -2.3213  -2.3213  -2.2800  -2.2633  -2.2284
    -2.1253  -2.0913  -1.5348  -1.2067  -1.2064  -1.0993   0.1844   0.1852
     0.9974   0.9991   1.2720   1.3119   1.3733   1.3867   1.4426   1.4768
     1.5610   1.5709   1.6499   1.6722   1.8499   1.8588   2.0155   2.0271
     2.2011   2.2226   2.3803   2.5594

          k = 0.0843-0.0487 0.0000 ( 70225 PWs)   bands (ev):

   -15.6078 -14.4407 -14.3925 -14.3396 -14.2712 -14.1439 -14.0774 -13.9158
   -13.7023 -13.6875 -13.6273 -13.5421 -13.4986 -13.3323 -13.2673 -13.0962
   -12.9972  -7.0577  -6.9059  -6.8638  -6.8583  -6.7595  -6.7273  -6.6227
    -6.5393  -6.4976  -6.1079  -6.0995  -5.8869  -5.7452  -5.6899  -5.5807
    -5.5742  -5.5265  -5.3706  -5.3651  -5.3218  -5.2391  -5.2386  -5.0617
    -4.9420  -4.9281  -4.8340  -4.4640  -4.3810  -4.3458  -4.0883  -3.9880
    -3.9754  -3.9067  -3.7972  -3.7536  -3.4795  -3.3968  -3.3677  -3.2811
    -3.1307  -3.0091  -2.9402  -2.9355  -2.8103  -2.7936  -2.5674  -2.5478
    -2.5245  -2.4724  -2.4113  -2.3191  -2.3140  -2.2667  -2.2507  -2.2134
    -2.1154  -2.0738  -1.5338  -1.2141  -1.2137  -1.1023   0.1868   0.1879
     1.0051   1.0076   1.2548   1.2971   1.3691   1.3865   1.4421   1.4900
     1.5724   1.5754   1.6655   1.6816   1.8507   1.8633   2.0164   2.0330
     2.1924   2.2229   2.3653   2.5455

          k = 0.0983-0.0568 0.0000 ( 70217 PWs)   bands (ev):

   -15.6036 -14.4517 -14.4077 -14.3516 -14.2760 -14.1281 -14.0553 -13.9068
   -13.7132 -13.6927 -13.6294 -13.5345 -13.4853 -13.3326 -13.2710 -13.0986
   -12.9999  -7.0535  -6.9240  -6.8608  -6.8608  -6.7633  -6.7291  -6.6152
    -6.5337  -6.4838  -6.1375  -6.1264  -5.9062  -5.7573  -5.6978  -5.5603
    -5.5477  -5.4964  -5.3588  -5.3548  -5.3160  -5.2373  -5.2372  -5.0636
    -4.9386  -4.9189  -4.8249  -4.4697  -4.3879  -4.3420  -4.1059  -4.0014
    -3.9855  -3.9007  -3.8084  -3.7484  -3.4804  -3.3984  -3.3853  -3.2724
    -3.1247  -3.0157  -2.9319  -2.9282  -2.8005  -2.7839  -2.5920  -2.5680
    -2.5408  -2.4768  -2.4308  -2.3142  -2.3069  -2.2526  -2.2367  -2.1979
    -2.1042  -2.0559  -1.5328  -1.2227  -1.2221  -1.1057   0.1895   0.1910
     1.0140   1.0172   1.2378   1.2827   1.3647   1.3858   1.4396   1.5027
     1.5805   1.5874   1.6817   1.6924   1.8516   1.8684   2.0172   2.0399
     2.1825   2.2233   2.3488   2.5297

          k = 0.1124-0.0649 0.0000 ( 70241 PWs)   bands (ev):

   -15.5987 -14.4719 -14.4140 -14.3635 -14.2809 -14.1118 -14.0340 -13.8972
   -13.7243 -13.6980 -13.6307 -13.5263 -13.4723 -13.3329 -13.2754 -13.1013
   -13.0031  -7.0487  -6.9437  -6.8623  -6.8578  -6.7668  -6.7316  -6.6064
    -6.5279  -6.4705  -6.1677  -6.1535  -5.9260  -5.7691  -5.7067  -5.5414
    -5.5210  -5.4650  -5.3466  -5.3459  -5.3071  -5.2356  -5.2345  -5.0653
    -4.9351  -4.9081  -4.8137  -4.4754  -4.3955  -4.3381  -4.1242  -4.0161
    -3.9968  -3.8959  -3.8211  -3.7418  -3.4821  -3.4040  -3.3994  -3.2631
    -3.1194  -3.0213  -2.9228  -2.9211  -2.7894  -2.7751  -2.6172  -2.5889
    -2.5580  -2.4797  -2.4529  -2.3081  -2.2993  -2.2382  -2.2217  -2.1823
    -2.0916  -2.0380  -1.5316  -1.2324  -1.2316  -1.1096   0.1925   0.1945
     1.0238   1.0278   1.2210   1.2689   1.3602   1.3849   1.4359   1.5149
     1.5862   1.6048   1.6982   1.7042   1.8527   1.8740   2.0179   2.0477
     2.1716   2.2238   2.3310   2.5124

          k = 0.1264-0.0730 0.0000 ( 70241 PWs)   bands (ev):

   -15.5932 -14.4969 -14.4156 -14.3752 -14.2858 -14.0953 -14.0134 -13.8875
   -13.7350 -13.7035 -13.6313 -13.5177 -13.4595 -13.3333 -13.2803 -13.1043
   -13.0066  -7.0435  -6.9640  -6.8634  -6.8551  -6.7696  -6.7340  -6.5968
    -6.5220  -6.4579  -6.1979  -6.1804  -5.9462  -5.7807  -5.7165  -5.5237
    -5.4946  -5.4336  -5.3407  -5.3322  -5.2951  -5.2335  -5.2306  -5.0667
    -4.9313  -4.8956  -4.8004  -4.4811  -4.4038  -4.3344  -4.1429  -4.0320
    -4.0094  -3.8926  -3.8354  -3.7338  -3.4850  -3.4234  -3.3997  -3.2532
    -3.1152  -3.0255  -2.9146  -2.9132  -2.7774  -2.7679  -2.6423  -2.6098
    -2.5763  -2.4811  -2.4765  -2.3014  -2.2908  -2.2234  -2.2063  -2.1670
    -2.0780  -2.0203  -1.5304  -1.2431  -1.2420  -1.1140   0.1958   0.1982
     1.0343   1.0391   1.2047   1.2559   1.3560   1.3839   1.4318   1.5265
     1.5924   1.6237   1.7150   1.7170   1.8540   1.8802   2.0183   2.0565
     2.1601   2.2243   2.3122   2.4939

          k = 0.1405-0.0811 0.0000 ( 70213 PWs)   bands (ev):

   -15.5870 -14.5237 -14.4152 -14.3866 -14.2906 -14.0784 -13.9938 -13.8785
   -13.7445 -13.7089 -13.6314 -13.5087 -13.4470 -13.3336 -13.2857 -13.1076
   -13.0105  -7.0384  -6.9842  -6.8644  -6.8530  -6.7714  -6.7361  -6.5868
    -6.5162  -6.4463  -6.2277  -6.2067  -5.9666  -5.7922  -5.7269  -5.5068
    -5.4689  -5.4033  -5.3364  -5.3179  -5.2810  -5.2310  -5.2249  -5.0677
    -4.9273  -4.8815  -4.7848  -4.4865  -4.4128  -4.3309  -4.1619  -4.0488
    -4.0231  -3.8907  -3.8510  -3.7242  -3.4900  -3.4423  -3.3994  -3.2428
    -3.1126  -3.0280  -2.9087  -2.9031  -2.7656  -2.7628  -2.6665  -2.6302
    -2.5956  -2.5009  -2.4807  -2.2945  -2.2816  -2.2082  -2.1906  -2.1519
    -2.0634  -2.0028  -1.5292  -1.2547  -1.2533  -1.1188   0.1994   0.2022
     1.0453   1.0508   1.1890   1.2440   1.3521   1.3828   1.4280   1.5377
     1.5992   1.6434   1.7306   1.7320   1.8555   1.8867   2.0180   2.0661
     2.1484   2.2249   2.2928   2.4745

          k = 0.1545-0.0892 0.0000 ( 70205 PWs)   bands (ev):

   -15.5802 -14.5514 -14.4142 -14.3977 -14.2953 -14.0613 -13.9750 -13.8711
   -13.7519 -13.7143 -13.6311 -13.4994 -13.4348 -13.3339 -13.2917 -13.1111
   -13.0147  -7.0352  -7.0022  -6.8655  -6.8517  -6.7719  -6.7375  -6.5766
    -6.5107  -6.4361  -6.2569  -6.2321  -5.9870  -5.8035  -5.7379  -5.4907
    -5.4441  -5.3758  -5.3323  -5.3037  -5.2659  -5.2278  -5.2168  -5.0681
    -4.9232  -4.8658  -4.7668  -4.4915  -4.4223  -4.3276  -4.1809  -4.0662
    -4.0378  -3.8902  -3.8680  -3.7132  -3.4992  -3.4587  -3.3983  -3.2320
    -3.1115  -3.0290  -2.9037  -2.8930  -2.7608  -2.7565  -2.6874  -2.6492
    -2.6157  -2.5259  -2.4784  -2.2874  -2.2716  -2.1930  -2.1745  -2.1374
    -2.0479  -1.9856  -1.5281  -1.2672  -1.2653  -1.1240   0.2032   0.2063
     1.0565   1.0625   1.1739   1.2335   1.3486   1.3818   1.4246   1.5484
     1.6063   1.6635   1.7448   1.7492   1.8574   1.8935   2.0165   2.0765
     2.1372   2.2254   2.2730   2.4545

          k = 0.1686-0.0973 0.0000 ( 70201 PWs)   bands (ev):

   -15.5727 -14.5795 -14.4128 -14.4085 -14.2997 -14.0440 -13.9570 -13.8665
   -13.7562 -13.7195 -13.6305 -13.4898 -13.4231 -13.3342 -13.2982 -13.1150
   -13.0194  -7.0409  -7.0107  -6.8666  -6.8514  -6.7707  -6.7383  -6.5665
    -6.5058  -6.4275  -6.2850  -6.2562  -6.0073  -5.8147  -5.7494  -5.4753
    -5.4204  -5.3544  -5.3256  -5.2898  -5.2509  -5.2237  -5.2053  -5.0676
    -4.9190  -4.8485  -4.7464  -4.4958  -4.4322  -4.3246  -4.1998  -4.0839
    -4.0535  -3.8910  -3.8862  -3.7009  -3.5144  -3.4706  -3.3963  -3.2208
    -3.1118  -3.0286  -2.8998  -2.8830  -2.7627  -2.7568  -2.6993  -2.6656
    -2.6362  -2.5508  -2.4743  -2.2801  -2.2608  -2.1781  -2.1578  -2.1234
    -2.0318  -1.9689  -1.5270  -1.2805  -1.2780  -1.1296   0.2071   0.2106
     1.0676   1.0735   1.1597   1.2248   1.3459   1.3810   1.4220   1.5587
     1.6138   1.6833   1.7594   1.7663   1.8598   1.9006   2.0132   2.0874
     2.1271   2.2258   2.2531   2.4346

          k = 0.1826-0.1054 0.0000 ( 70195 PWs)   bands (ev):

   -15.5646 -14.6077 -14.4189 -14.4113 -14.3035 -14.0266 -13.9399 -13.8657
   -13.7563 -13.7246 -13.6294 -13.4801 -13.4120 -13.3343 -13.3052 -13.1191
   -13.0244  -7.0576  -7.0076  -6.8679  -6.8523  -6.7680  -6.7382  -6.5565
    -6.5016  -6.4212  -6.3114  -6.2787  -6.0274  -5.8257  -5.7614  -5.4606
    -5.3977  -5.3435  -5.3125  -5.2771  -5.2367  -5.2185  -5.1897  -5.0658
    -4.9145  -4.8297  -4.7236  -4.4993  -4.4425  -4.3221  -4.2183  -4.1018
    -4.0701  -3.9056  -3.8927  -3.6874  -3.5349  -3.4789  -3.3936  -3.2094
    -3.1131  -3.0272  -2.8969  -2.8736  -2.7708  -2.7697  -2.7005  -2.6779
    -2.6551  -2.5749  -2.4684  -2.2727  -2.2494  -2.1638  -2.1402  -2.1100
    -2.0150  -1.9526  -1.5261  -1.2943  -1.2911  -1.1356   0.2112   0.2150
     1.0780   1.0833   1.1468   1.2185   1.3439   1.3804   1.4203   1.5687
     1.6217   1.7025   1.7743   1.7833   1.8630   1.9079   2.0075   2.0986
     2.1186   2.2260   2.2336   2.4151

          k = 0.1967-0.1135 0.0000 ( 70221 PWs)   bands (ev):

   -15.5559 -14.6360 -14.4290 -14.4099 -14.3068 -14.0090 -13.9240 -13.8686
   -13.7522 -13.7296 -13.6279 -13.4702 -13.4015 -13.3341 -13.3128 -13.1234
   -13.0298  -7.0775  -7.0006  -6.8691  -6.8543  -6.7637  -6.7373  -6.5470
    -6.4984  -6.4183  -6.3349  -6.2993  -6.0472  -5.8366  -5.7737  -5.4469
    -5.3761  -5.3394  -5.2968  -5.2660  -5.2234  -5.2119  -5.1699  -5.0626
    -4.9098  -4.8097  -4.6985  -4.5017  -4.4530  -4.3201  -4.2364  -4.1194
    -4.0874  -3.9261  -3.8952  -3.6728  -3.5583  -3.4858  -3.3900  -3.1978
    -3.1150  -3.0252  -2.8952  -2.8656  -2.7922  -2.7814  -2.7056  -2.6857
    -2.6657  -2.5966  -2.4609  -2.2651  -2.2373  -2.1502  -2.1216  -2.0971
    -1.9977  -1.9368  -1.5254  -1.3088  -1.3046  -1.1419   0.2153   0.2194
     1.0864   1.0910   1.1364   1.2153   1.3429   1.3800   1.4196   1.5783
     1.6297   1.7204   1.7892   1.8000   1.8673   1.9154   1.9991   2.1098
     2.1120   2.2150   2.2258   2.3969

          k = 0.2107-0.1217 0.0000 ( 70215 PWs)   bands (ev):

   -15.5466 -14.6643 -14.4387 -14.4088 -14.3094 -13.9913 -13.9102 -13.8733
   -13.7450 -13.7343 -13.6260 -13.4601 -13.3920 -13.3336 -13.3208 -13.1279
   -13.0356  -7.0979  -6.9924  -6.8702  -6.8570  -6.7582  -6.7358  -6.5379
    -6.4965  -6.4208  -6.3533  -6.3175  -6.0665  -5.8473  -5.7865  -5.4342
    -5.3555  -5.3373  -5.2826  -5.2568  -5.2113  -5.2038  -5.1467  -5.0575
    -4.9048  -4.7889  -4.6714  -4.5028  -4.4637  -4.3187  -4.2536  -4.1364
    -4.1056  -3.9475  -3.8983  -3.6574  -3.5833  -3.4926  -3.3857  -3.1861
    -3.1173  -3.0231  -2.8949  -2.8605  -2.8158  -2.7954  -2.7243  -2.6894
    -2.6680  -2.6117  -2.4520  -2.2573  -2.2249  -2.1375  -2.1022  -2.0850
    -1.9801  -1.9214  -1.5250  -1.3237  -1.3184  -1.1486   0.2195   0.2237
     1.0902   1.0959   1.1310   1.2156   1.3430   1.3799   1.4200   1.5876
     1.6379   1.7364   1.8040   1.8163   1.8732   1.9230   1.9884   2.1066
     2.1204   2.1982   2.2252   2.3809

          k = 0.2248-0.1298 0.0000 ( 70225 PWs)   bands (ev):

   -15.5366 -14.6925 -14.4480 -14.4080 -14.3111 -13.9735 -13.9030 -13.8745
   -13.7388 -13.7357 -13.6235 -13.4500 -13.3837 -13.3323 -13.3292 -13.1325
   -13.0417  -7.1182  -6.9835  -6.8711  -6.8603  -6.7520  -6.7336  -6.5294
    -6.4962  -6.4308  -6.3645  -6.3329  -6.0854  -5.8577  -5.7995  -5.4228
    -5.3357  -5.3356  -5.2704  -5.2495  -5.2005  -5.1945  -5.1215  -5.0502
    -4.8994  -4.7676  -4.6425  -4.5022  -4.4745  -4.3182  -4.2698  -4.1524
    -4.1244  -3.9698  -3.9018  -3.6411  -3.6093  -3.4997  -3.3805  -3.1745
    -3.1196  -3.0212  -2.8965  -2.8624  -2.8394  -2.8063  -2.7493  -2.6904
    -2.6775  -2.6132  -2.4420  -2.2492  -2.2121  -2.1255  -2.0821  -2.0734
    -1.9620  -1.9066  -1.5250  -1.3389  -1.3321  -1.1555   0.2236   0.2280
     1.0869   1.0978   1.1329   1.2195   1.3442   1.3801   1.4217   1.5966
     1.6462   1.7495   1.8185   1.8320   1.8807   1.9309   1.9765   2.1009
     2.1293   2.1843   2.2244   2.3679

          k = 0.2388-0.1379 0.0000 ( 70225 PWs)   bands (ev):

   -15.5261 -14.7206 -14.4569 -14.4078 -14.3117 -13.9558 -13.9073 -13.8664
   -13.7430 -13.7256 -13.6204 -13.4398 -13.3769 -13.3381 -13.3300 -13.1373
   -13.0481  -7.1381  -6.9744  -6.8715  -6.8639  -6.7453  -6.7310  -6.5218
    -6.4975  -6.4470  -6.3695  -6.3453  -6.1038  -5.8679  -5.8129  -5.4132
    -5.3335  -5.3168  -5.2598  -5.2436  -5.1910  -5.1846  -5.0954  -5.0401
    -4.8937  -4.7464  -4.6126  -4.4997  -4.4849  -4.3188  -4.2847  -4.1669
    -4.1437  -3.9930  -3.9055  -3.6359  -3.6243  -3.5075  -3.3747  -3.1630
    -3.1218  -3.0199  -2.9008  -2.8749  -2.8616  -2.8092  -2.7768  -2.6959
    -2.6896  -2.6039  -2.4312  -2.2408  -2.1990  -2.1139  -2.0625  -2.0616
    -1.9437  -1.8923  -1.5255  -1.3544  -1.3458  -1.1628   0.2276   0.2322
     1.0788   1.0970   1.1397   1.2266   1.3467   1.3805   1.4245   1.6054
     1.6546   1.7593   1.8325   1.8467   1.8897   1.9390   1.9649   2.0931
     2.1349   2.1749   2.2243   2.3588

          k = 0.2529-0.1460 0.0000 ( 70219 PWs)   bands (ev):

   -15.5149 -14.7485 -14.4654 -14.4080 -14.3114 -13.9381 -13.9175 -13.8537
   -13.7469 -13.7152 -13.6166 -13.4298 -13.3720 -13.3472 -13.3263 -13.1422
   -13.0548  -7.1576  -6.9651  -6.8713  -6.8676  -6.7387  -6.7281  -6.5153
    -6.5003  -6.4658  -6.3716  -6.3546  -6.1216  -5.8778  -5.8265  -5.4055
    -5.3305  -5.2987  -5.2501  -5.2388  -5.1828  -5.1747  -5.0698  -5.0270
    -4.8875  -4.7258  -4.5827  -4.4950  -4.4946  -4.3206  -4.2977  -4.1792
    -4.1635  -4.0168  -3.9092  -3.6630  -3.6068  -3.5159  -3.3682  -3.1518
    -3.1238  -3.0194  -2.9101  -2.8951  -2.8806  -2.8060  -2.8053  -2.7175
    -2.6875  -2.5908  -2.4198  -2.2320  -2.1859  -2.1029  -2.0522  -2.0408
    -1.9251  -1.8785  -1.5267  -1.3701  -1.3593  -1.1703   0.2315   0.2362
     1.0691   1.0942   1.1483   1.2359   1.3505   1.3811   1.4285   1.6139
     1.6630   1.7652   1.8456   1.8595   1.8993   1.9475   1.9564   2.0821
     2.1353   2.1708   2.2268   2.3540

          k = 0.2669-0.1541 0.0000 ( 70213 PWs)   bands (ev):

   -15.5032 -14.7762 -14.4734 -14.4087 -14.3099 -13.9297 -13.9204 -13.8401
   -13.7505 -13.7053 -13.6120 -13.4201 -13.3689 -13.3564 -13.3213 -13.1472
   -13.0619  -7.1764  -6.9560  -6.8713  -6.8702  -6.7325  -6.7252  -6.5104
    -6.5042  -6.4846  -6.3727  -6.3610  -6.1387  -5.8874  -5.8404  -5.4002
    -5.3263  -5.2814  -5.2410  -5.2346  -5.1759  -5.1649  -5.0456  -5.0105
    -4.8810  -4.7062  -4.5554  -4.5017  -4.4881  -4.3240  -4.3082  -4.1889
    -4.1837  -4.0412  -3.9127  -3.6904  -3.5889  -3.5250  -3.3611  -3.1409
    -3.1255  -3.0205  -2.9262  -2.9183  -2.8954  -2.8332  -2.8005  -2.7402
    -2.6845  -2.5767  -2.4080  -2.2228  -2.1729  -2.0922  -2.0425  -2.0200
    -1.9063  -1.8652  -1.5286  -1.3860  -1.3722  -1.1780   0.2353   0.2401
     1.0590   1.0902   1.1575   1.2466   1.3556   1.3818   1.4335   1.6220
     1.6713   1.7671   1.8578   1.8679   1.9085   1.9546   1.9566   2.0684
     2.1295   2.1711   2.2330   2.3535

          k = 0.2810-0.1622 0.0000 ( 70225 PWs)   bands (ev):

   -15.4908 -14.8037 -14.4811 -14.4100 -14.3074 -13.9428 -13.9030 -13.8265
   -13.7536 -13.6961 -13.6067 -13.4113 -13.3675 -13.3650 -13.3153 -13.1523
   -13.0692  -7.1945  -6.9473  -6.8749  -6.8678  -6.7271  -6.7225  -6.5112
    -6.5084  -6.4982  -6.3737  -6.3649  -6.1550  -5.8966  -5.8545  -5.3971
    -5.3209  -5.2649  -5.2324  -5.2307  -5.1700  -5.1557  -5.0234  -4.9906
    -4.8740  -4.6881  -4.5395  -4.4988  -4.4792  -4.3288  -4.3150  -4.2040
    -4.1954  -4.0660  -3.9160  -3.7178  -3.5707  -3.5346  -3.3535  -3.1306
    -3.1271  -3.0245  -2.9463  -2.9412  -2.9110  -2.8576  -2.7942  -2.7628
    -2.6808  -2.5628  -2.3962  -2.2133  -2.1601  -2.0818  -2.0334  -1.9993
    -1.8873  -1.8524  -1.5315  -1.4018  -1.3846  -1.1859   0.2389   0.2438
     1.0491   1.0854   1.1666   1.2580   1.3620   1.3828   1.4394   1.6299
     1.6795   1.7651   1.8687   1.8690   1.9186   1.9608   1.9663   2.0534
     2.1181   2.1745   2.2429   2.3395

          k = 0.2950-0.1703 0.0000 ( 70217 PWs)   bands (ev):

   -15.4779 -14.8310 -14.4883 -14.4117 -14.3039 -13.9562 -13.8858 -13.8132
   -13.7561 -13.6878 -13.6007 -13.4052 -13.3713 -13.3672 -13.3086 -13.1573
   -13.0768  -7.2118  -6.9394  -6.8782  -6.8638  -6.7230  -6.7204  -6.5243
    -6.5120  -6.4994  -6.3750  -6.3669  -6.1706  -5.9055  -5.8688  -5.3958
    -5.3146  -5.2494  -5.2271  -5.2241  -5.1648  -5.1469  -5.0027  -4.9685
    -4.8666  -4.6715  -4.5408  -4.4824  -4.4691  -4.3344  -4.3165  -4.2240
    -4.1985  -4.0910  -3.9187  -3.7453  -3.5521  -3.5447  -3.3455  -3.1284
    -3.1209  -3.0337  -2.9679  -2.9604  -2.9326  -2.8759  -2.7880  -2.7851
    -2.6767  -2.5496  -2.3844  -2.2034  -2.1477  -2.0715  -2.0249  -1.9788
    -1.8681  -1.8400  -1.5354  -1.4176  -1.3962  -1.1940   0.2423   0.2474
     1.0396   1.0804   1.1755   1.2697   1.3694   1.3840   1.4459   1.6375
     1.6876   1.7593   1.8645   1.8781   1.9306   1.9718   1.9768   2.0388
     2.1031   2.1797   2.2552   2.3227

          k = 0.3090-0.1784 0.0000 ( 70233 PWs)   bands (ev):

   -15.4644 -14.8580 -14.4950 -14.4136 -14.2995 -13.9699 -13.8692 -13.8003
   -13.7579 -13.6802 -13.5942 -13.4056 -13.3716 -13.3678 -13.3015 -13.1623
   -13.0847  -7.2283  -6.9325  -6.8813  -6.8581  -6.7206  -6.7192  -6.5388
    -6.5143  -6.4988  -6.3766  -6.3676  -6.1853  -5.9139  -5.8831  -5.3960
    -5.3078  -5.2353  -5.2232  -5.2164  -5.1599  -5.1386  -4.9826  -4.9455
    -4.8588  -4.6564  -4.5484  -4.4656  -4.4591  -4.3400  -4.3111  -4.2429
    -4.1982  -4.1160  -3.9208  -3.7725  -3.5549  -3.5334  -3.3372  -3.1298
    -3.1122  -3.0507  -2.9907  -2.9729  -2.9590  -2.8890  -2.8067  -2.7820
    -2.6721  -2.5373  -2.3728  -2.1933  -2.1359  -2.0615  -2.0170  -1.9586
    -1.8488  -1.8280  -1.5404  -1.4332  -1.4068  -1.2023   0.2455   0.2507
     1.0305   1.0753   1.1842   1.2813   1.3778   1.3854   1.4529   1.6447
     1.6955   1.7498   1.8579   1.8860   1.9429   1.9828   1.9880   2.0277
     2.0862   2.1858   2.2692   2.3084

          k = 0.3231-0.1865 0.0000 ( 70217 PWs)   bands (ev):

   -15.4504 -14.8846 -14.5013 -14.4159 -14.2943 -13.9837 -13.8533 -13.7881
   -13.7587 -13.6734 -13.5875 -13.4126 -13.3689 -13.3655 -13.2944 -13.1673
   -13.0929  -7.2439  -6.9267  -6.8841  -6.8505  -6.7201  -6.7194  -6.5511
    -6.5145  -6.4996  -6.3786  -6.3674  -6.1990  -5.9219  -5.8974  -5.3972
    -5.3007  -5.2245  -5.2173  -5.2093  -5.1551  -5.1306  -4.9625  -4.9225
    -4.8507  -4.6424  -4.5574  -4.4553  -4.4512  -4.3440  -4.3016  -4.2565
    -4.1951  -4.1402  -3.9218  -3.7995  -3.5653  -3.5146  -3.3289  -3.1316
    -3.1047  -3.0743  -3.0164  -2.9849  -2.9791  -2.9004  -2.8270  -2.7764
    -2.6674  -2.5261  -2.3615  -2.1830  -2.1248  -2.0515  -2.0097  -1.9390
    -1.8295  -1.8164  -1.5466  -1.4487  -1.4165  -1.2106   0.2485   0.2538
     1.0220   1.0704   1.1927   1.2928   1.3869   1.3871   1.4601   1.6515
     1.7032   1.7373   1.8516   1.8922   1.9529   1.9878   1.9997   2.0264
     2.0688   2.1921   2.2841   2.2970

          k = 0.3371-0.1947 0.0000 ( 70203 PWs)   bands (ev):

   -15.4358 -14.9109 -14.5072 -14.4182 -14.2885 -13.9974 -13.8388 -13.7765
   -13.7580 -13.6671 -13.5807 -13.4230 -13.3704 -13.3566 -13.2875 -13.1722
   -13.1013  -7.2586  -6.9219  -6.8865  -6.8410  -6.7216  -6.7214  -6.5605
    -6.5125  -6.5021  -6.3808  -6.3668  -6.2116  -5.9295  -5.9117  -5.3991
    -5.2937  -5.2193  -5.2072  -5.2030  -5.1501  -5.1227  -4.9424  -4.9000
    -4.8422  -4.6292  -4.5665  -4.4515  -4.4473  -4.3455  -4.3035  -4.2506
    -4.1924  -4.1601  -3.9217  -3.8260  -3.5753  -3.4958  -3.3206  -3.1353
    -3.1004  -3.0992  -3.0464  -3.0062  -2.9816  -2.9122  -2.8455  -2.7712
    -2.6626  -2.5161  -2.3507  -2.1726  -2.1145  -2.0416  -2.0029  -1.9200
    -1.8101  -1.8052  -1.5539  -1.4639  -1.4252  -1.2189   0.2512   0.2567
     1.0141   1.0657   1.2010   1.3040   1.3889   1.3964   1.4673   1.6578
     1.7106   1.7225   1.8461   1.8969   1.9559   1.9883   2.0105   2.0365
     2.0532   2.1980   2.2893   2.2996

          k = 0.3512-0.2028 0.0000 ( 70195 PWs)   bands (ev):

   -15.4207 -14.9368 -14.5126 -14.4206 -14.2820 -14.0110 -13.8262 -13.7658
   -13.7552 -13.6611 -13.5743 -13.4348 -13.3720 -13.3466 -13.2807 -13.1771
   -13.1099  -7.2723  -6.9179  -6.8885  -6.8302  -6.7252  -6.7248  -6.5667
    -6.5081  -6.5065  -6.3835  -6.3660  -6.2230  -5.9365  -5.9258  -5.4014
    -5.2869  -5.2160  -5.1976  -5.1968  -5.1448  -5.1150  -4.9226  -4.8780
    -4.8334  -4.6164  -4.5754  -4.4522  -4.4481  -4.3446  -4.3189  -4.2259
    -4.2021  -4.1631  -3.9198  -3.8518  -3.5849  -3.4773  -3.3127  -3.1482
    -3.1196  -3.0982  -3.0773  -3.0223  -2.9821  -2.9256  -2.8617  -2.7664
    -2.6579  -2.5072  -2.3404  -2.1624  -2.1052  -2.0318  -1.9967  -1.9017
    -1.7943  -1.7910  -1.5623  -1.4787  -1.4329  -1.2271   0.2536   0.2593
     1.0067   1.0614   1.2091   1.3149   1.3908   1.4059   1.4742   1.6638
     1.7063   1.7177   1.8414   1.9002   1.9495   1.9929   2.0142   2.0458
     2.0512   2.2032   2.2856   2.3155

          k = 0.3652-0.2109 0.0000 ( 70195 PWs)   bands (ev):

   -15.4051 -14.9623 -14.5176 -14.4229 -14.2750 -14.0244 -13.8164 -13.7560
   -13.7493 -13.6552 -13.5685 -13.4474 -13.3738 -13.3362 -13.2742 -13.1818
   -13.1187  -7.2849  -6.9143  -6.8902  -6.8182  -6.7309  -6.7295  -6.5698
    -6.5126  -6.5017  -6.3867  -6.3653  -6.2330  -5.9430  -5.9396  -5.4039
    -5.2805  -5.2130  -5.1931  -5.1878  -5.1393  -5.1071  -4.9035  -4.8562
    -4.8244  -4.6038  -4.5837  -4.4553  -4.4527  -4.3429  -4.3377  -4.2222
    -4.1953  -4.1513  -3.9157  -3.8767  -3.5937  -3.4593  -3.3055  -3.1754
    -3.1258  -3.1200  -3.0895  -3.0340  -2.9816  -2.9410  -2.8751  -2.7621
    -2.6533  -2.4994  -2.3308  -2.1524  -2.0968  -2.0222  -1.9911  -1.8840
    -1.7838  -1.7722  -1.5715  -1.4932  -1.4399  -1.2352   0.2559   0.2618
     1.0000   1.0574   1.2171   1.3255   1.3929   1.4153   1.4806   1.6693
     1.6895   1.7244   1.8373   1.9020   1.9388   1.9995   2.0048   2.0533
     2.0668   2.2078   2.2859   2.3317

          k = 0.3793-0.2190 0.0000 ( 70187 PWs)   bands (ev):

   -15.3891 -14.9874 -14.5221 -14.4252 -14.2676 -14.0375 -13.8098 -13.7472
   -13.7402 -13.6491 -13.5634 -13.4606 -13.3755 -13.3256 -13.2680 -13.1864
   -13.1277  -7.2965  -6.9110  -6.8915  -6.8055  -6.7379  -6.7352  -6.5700
    -6.5204  -6.4935  -6.3906  -6.3648  -6.2417  -5.9530  -5.9490  -5.4065
    -5.2745  -5.2102  -5.1896  -5.1802  -5.1336  -5.0992  -4.8856  -4.8343
    -4.8152  -4.5916  -4.5914  -4.4597  -4.4594  -4.3570  -4.3431  -4.2423
    -4.1639  -4.1342  -3.9085  -3.9005  -3.6012  -3.4424  -3.2997  -3.2075
    -3.1535  -3.1278  -3.0926  -3.0416  -2.9805  -2.9581  -2.8859  -2.7583
    -2.6489  -2.4926  -2.3218  -2.1428  -2.0895  -2.0129  -1.9860  -1.8671
    -1.7736  -1.7539  -1.5813  -1.5071  -1.4463  -1.2431   0.2579   0.2640
     0.9939   1.0538   1.2249   1.3357   1.3952   1.4243   1.4862   1.6728
     1.6743   1.7307   1.8336   1.9026   1.9274   1.9911   2.0052   2.0670
     2.0823   2.2124   2.2896   2.3479

          k = 0.3933-0.2271 0.0000 ( 70175 PWs)   bands (ev):

   -15.3726 -15.0119 -14.5261 -14.4274 -14.2599 -14.0504 -13.8059 -13.7395
   -13.7282 -13.6428 -13.5593 -13.4743 -13.3771 -13.3150 -13.2622 -13.1908
   -13.1368  -7.3069  -6.9077  -6.8924  -6.7929  -6.7452  -6.7415  -6.5681
    -6.5295  -6.4840  -6.3952  -6.3648  -6.2488  -5.9657  -5.9544  -5.4090
    -5.2690  -5.2076  -5.1868  -5.1741  -5.1279  -5.0913  -4.8695  -4.8119
    -4.8061  -4.5985  -4.5801  -4.4665  -4.4643  -4.3760  -4.3478  -4.2590
    -4.1342  -4.1145  -3.9228  -3.8973  -3.6073  -3.4275  -3.2963  -3.2408
    -3.1852  -3.1289  -3.0969  -3.0463  -2.9791  -2.9761  -2.8947  -2.7549
    -2.6449  -2.4868  -2.3136  -2.1337  -2.0831  -2.0040  -1.9815  -1.8509
    -1.7638  -1.7366  -1.5912  -1.5205  -1.4523  -1.2506   0.2596   0.2660
     0.9884   1.0506   1.2325   1.3454   1.3974   1.4326   1.4908   1.6568
     1.6789   1.7365   1.8301   1.9020   1.9165   1.9777   2.0092   2.0825
     2.0970   2.2176   2.2957   2.3641

          k = 0.4074-0.2352 0.0000 ( 70181 PWs)   bands (ev):

   -15.3559 -15.0358 -14.5296 -14.4293 -14.2520 -14.0628 -13.8038 -13.7330
   -13.7143 -13.6364 -13.5562 -13.4884 -13.3785 -13.3044 -13.2567 -13.1951
   -13.1460  -7.3162  -6.9045  -6.8931  -6.7821  -6.7509  -6.7480  -6.5646
    -6.5396  -6.4737  -6.4006  -6.3653  -6.2546  -5.9777  -5.9592  -5.4115
    -5.2640  -5.2052  -5.1846  -5.1693  -5.1225  -5.0837  -4.8552  -4.7970
    -4.7890  -4.6047  -4.5702  -4.4726  -4.4690  -4.3942  -4.3585  -4.2709
    -4.1083  -4.0938  -3.9434  -3.8812  -3.6114  -3.4163  -3.2969  -3.2744
    -3.2111  -3.1296  -3.1020  -3.0498  -2.9939  -2.9776  -2.9018  -2.7519
    -2.6412  -2.4819  -2.3062  -2.1254  -2.0776  -1.9958  -1.9775  -1.8355
    -1.7543  -1.7205  -1.6008  -1.5332  -1.4581  -1.2576   0.2612   0.2678
     0.9836   1.0477   1.2399   1.3546   1.3997   1.4401   1.4942   1.6422
     1.6829   1.7418   1.8267   1.9002   1.9068   1.9659   2.0116   2.0988
     2.1106   2.2235   2.3035   2.3799

          k = 0.4214-0.2433 0.0000 ( 70187 PWs)   bands (ev):

   -15.3389 -15.0591 -14.5327 -14.4311 -14.2440 -14.0747 -13.8029 -13.7275
   -13.6992 -13.6297 -13.5543 -13.5028 -13.3797 -13.2939 -13.2515 -13.1993
   -13.1552  -7.3243  -6.9011  -6.8934  -6.7781  -6.7543  -6.7497  -6.5611
    -6.5493  -6.4629  -6.4066  -6.3665  -6.2591  -5.9888  -5.9635  -5.4137
    -5.2596  -5.2030  -5.1829  -5.1657  -5.1176  -5.0765  -4.8430  -4.7882
    -4.7657  -4.6101  -4.5627  -4.4763  -4.4733  -4.4113  -4.3746  -4.2780
    -4.0872  -4.0735  -3.9617  -3.8596  -3.6132  -3.4123  -3.3075  -3.3017
    -3.2271  -3.1302  -3.1068  -3.0538  -3.0105  -2.9760  -2.9074  -2.7493
    -2.6379  -2.4778  -2.2996  -2.1178  -2.0730  -1.9883  -1.9740  -1.8209
    -1.7454  -1.7066  -1.6095  -1.5451  -1.4638  -1.2640   0.2625   0.2693
     0.9794   1.0453   1.2469   1.3631   1.4020   1.4467   1.4962   1.6293
     1.6865   1.7465   1.8234   1.8973   1.8983   1.9562   2.0126   2.1155
     2.1229   2.2299   2.3121   2.3939

          k = 0.4355-0.2514 0.0000 ( 70189 PWs)   bands (ev):

   -15.3218 -15.0814 -14.5353 -14.4326 -14.2360 -14.0859 -13.8025 -13.7231
   -13.6836 -13.6231 -13.5534 -13.5175 -13.3807 -13.2837 -13.2467 -13.2032
   -13.1644  -7.3312  -6.8977  -6.8935  -6.7821  -6.7602  -6.7401  -6.5658
    -6.5507  -6.4520  -6.4130  -6.3684  -6.2624  -5.9986  -5.9671  -5.4156
    -5.2558  -5.2011  -5.1816  -5.1630  -5.1132  -5.0701  -4.8327  -4.7800
    -4.7424  -4.6146  -4.5586  -4.4771  -4.4767  -4.4269  -4.3939  -4.2824
    -4.0712  -4.0552  -3.9771  -3.8330  -3.6124  -3.4200  -3.3395  -3.3061
    -3.2333  -3.1306  -3.1112  -3.0597  -3.0243  -2.9745  -2.9119  -2.7472
    -2.6351  -2.4745  -2.2940  -2.1112  -2.0692  -1.9817  -1.9711  -1.8071
    -1.7370  -1.6957  -1.6162  -1.5561  -1.4693  -1.2696   0.2636   0.2706
     0.9758   1.0433   1.2534   1.3707   1.4042   1.4523   1.4968   1.6185
     1.6895   1.7506   1.8203   1.8913   1.8935   1.9488   2.0125   2.1323
     2.1337   2.2364   2.3211   2.3970

          k = 0.4495-0.2595 0.0000 ( 70199 PWs)   bands (ev):

   -15.3049 -15.1026 -14.5375 -14.4338 -14.2284 -14.0962 -13.8025 -13.7197
   -13.6677 -13.6167 -13.5535 -13.5323 -13.3815 -13.2738 -13.2422 -13.2070
   -13.1734  -7.3369  -6.8944  -6.8935  -6.7887  -6.7653  -6.7275  -6.5769
    -6.5458  -6.4413  -6.4195  -6.3711  -6.2647  -6.0071  -5.9700  -5.4173
    -5.2526  -5.1994  -5.1806  -5.1610  -5.1095  -5.0645  -4.8243  -4.7725
    -4.7197  -4.6182  -4.5580  -4.4804  -4.4742  -4.4405  -4.4139  -4.2853
    -4.0597  -4.0408  -3.9881  -3.8026  -3.6090  -3.4403  -3.3697  -3.3053
    -3.2334  -3.1309  -3.1155  -3.0673  -3.0345  -2.9732  -2.9153  -2.7455
    -2.6328  -2.4719  -2.2893  -2.1057  -2.0662  -1.9761  -1.9687  -1.7944
    -1.7295  -1.6891  -1.6199  -1.5658  -1.4745  -1.2745   0.2645   0.2717
     0.9729   1.0417   1.2592   1.3772   1.4062   1.4569   1.4960   1.6101
     1.6920   1.7541   1.8174   1.8856   1.8894   1.9433   2.0119   2.1429
     2.1486   2.2425   2.3297   2.3827

          k = 0.4636-0.2676 0.0000 ( 70182 PWs)   bands (ev):

   -15.2888 -15.1220 -14.5391 -14.4348 -14.2215 -14.1052 -13.8026 -13.7171
   -13.6519 -13.6109 -13.5543 -13.5471 -13.3820 -13.2647 -13.2380 -13.2106
   -13.1819  -7.3413  -6.8933  -6.8913  -6.7951  -6.7696  -6.7149  -6.5884
    -6.5404  -6.4314  -6.4255  -6.3745  -6.2663  -6.0139  -5.9723  -5.4186
    -5.2501  -5.1980  -5.1799  -5.1597  -5.1065  -5.0599  -4.8177  -4.7662
    -4.6986  -4.6209  -4.5598  -4.4830  -4.4703  -4.4518  -4.4323  -4.2876
    -4.0520  -4.0331  -3.9928  -3.7705  -3.6033  -3.4680  -3.3970  -3.3008
    -3.2304  -3.1312  -3.1207  -3.0748  -3.0415  -2.9721  -2.9178  -2.7442
    -2.6309  -2.4699  -2.2856  -2.1013  -2.0638  -1.9716  -1.9669  -1.7831
    -1.7230  -1.6873  -1.6201  -1.5739  -1.4793  -1.2783   0.2652   0.2726
     0.9706   1.0404   1.2641   1.3826   1.4080   1.4604   1.4944   1.6039
     1.6940   1.7568   1.8150   1.8813   1.8854   1.9396   2.0111   2.1502
     2.1638   2.2477   2.3373   2.3656

          k = 0.4776-0.2758 0.0000 ( 70180 PWs)   bands (ev):

   -15.2745 -15.1388 -14.5403 -14.4356 -14.2158 -14.1124 -13.8027 -13.7154
   -13.6368 -13.6061 -13.5615 -13.5554 -13.3823 -13.2567 -13.2344 -13.2139
   -13.1894  -7.3445  -6.8932  -6.8887  -6.8002  -6.7727  -6.7037  -6.5988
    -6.5357  -6.4306  -6.4226  -6.3783  -6.2673  -6.0190  -5.9740  -5.4195
    -5.2483  -5.1970  -5.1794  -5.1588  -5.1044  -5.0566  -4.8130  -4.7614
    -4.6805  -4.6228  -4.5627  -4.4849  -4.4679  -4.4602  -4.4462  -4.2894
    -4.0471  -4.0321  -3.9913  -3.7399  -3.5965  -3.4969  -3.4197  -3.2958
    -3.2260  -3.1314  -3.1270  -3.0797  -3.0465  -2.9712  -2.9194  -2.7432
    -2.6296  -2.4685  -2.2830  -2.0982  -2.0622  -1.9684  -1.9656  -1.7737
    -1.7179  -1.6889  -1.6179  -1.5802  -1.4832  -1.2812   0.2657   0.2732
     0.9690   1.0395   1.2678   1.3865   1.4094   1.4629   1.4924   1.5999
     1.6954   1.7588   1.8132   1.8782   1.8822   1.9372   2.0103   2.1556
     2.1767   2.2517   2.3434   2.3505

          k = 0.4917-0.2839 0.0000 ( 70180 PWs)   bands (ev):

   -15.2639 -15.1508 -14.5411 -14.4360 -14.2119 -14.1172 -13.8028 -13.7143
   -13.6238 -13.6029 -13.5741 -13.5564 -13.3825 -13.2508 -13.2316 -13.2165
   -13.1949  -7.3464  -6.8930  -6.8870  -6.8036  -6.7747  -6.6954  -6.6066
    -6.5325  -6.4340  -6.4161  -6.3817  -6.2679  -6.0220  -5.9750  -5.4201
    -5.2473  -5.1964  -5.1792  -5.1584  -5.1031  -5.0546  -4.8101  -4.7584
    -4.6678  -4.6239  -4.5655  -4.4862  -4.4698  -4.4655  -4.4520  -4.2906
    -4.0444  -4.0336  -3.9882  -3.7158  -3.5906  -3.5203  -3.4353  -3.2923
    -3.2218  -3.1328  -3.1315  -3.0819  -3.0496  -2.9707  -2.9203  -2.7427
    -2.6288  -2.4677  -2.2814  -2.0962  -2.0612  -1.9664  -1.9648  -1.7673
    -1.7147  -1.6915  -1.6156  -1.5842  -1.4859  -1.2829   0.2660   0.2735
     0.9680   1.0390   1.2702   1.3889   1.4103   1.4644   1.4909   1.5976
     1.6963   1.7600   1.8120   1.8764   1.8801   1.9359   2.0098   2.1588
     2.1858   2.2542   2.3400   2.3473

          k = 0.5057-0.2920 0.0000 ( 70188 PWs)   bands (ev):

   -15.2598 -15.1554 -14.5413 -14.4362 -14.2105 -14.1188 -13.8028 -13.7140
   -13.6175 -13.6018 -13.5802 -13.5569 -13.3826 -13.2486 -13.2304 -13.2177
   -13.1970  -7.3470  -6.8930  -6.8864  -6.8048  -6.7753  -6.6923  -6.6095
    -6.5314  -6.4352  -6.4136  -6.3832  -6.2681  -6.0231  -5.9753  -5.4203
    -5.2469  -5.1962  -5.1791  -5.1582  -5.1027  -5.0539  -4.8092  -4.7573
    -4.6632  -4.6242  -4.5666  -4.4866  -4.4718  -4.4672  -4.4526  -4.2910
    -4.0435  -4.0344  -3.9869  -3.7061  -3.5881  -3.5299  -3.4410  -3.2911
    -3.2201  -3.1352  -3.1315  -3.0824  -3.0507  -2.9705  -2.9206  -2.7425
    -2.6285  -2.4674  -2.2809  -2.0956  -2.0609  -1.9657  -1.9645  -1.7650
    -1.7136  -1.6926  -1.6147  -1.5856  -1.4868  -1.2835   0.2661   0.2736
     0.9677   1.0388   1.2710   1.3898   1.4107   1.4648   1.4904   1.5969
     1.6966   1.7604   1.8116   1.8758   1.8794   1.9354   2.0096   2.1599
     2.1892   2.2551   2.3362   2.3486

          k = 0.4977-0.3059 0.0000 ( 70196 PWs)   bands (ev):

   -15.2595 -15.1552 -14.5487 -14.4287 -14.2103 -14.1187 -13.8055 -13.7117
   -13.6236 -13.5965 -13.5804 -13.5562 -13.3825 -13.2508 -13.2285 -13.2177
   -13.1969  -7.3467  -6.9016  -6.8817  -6.8042  -6.7726  -6.6920  -6.6093
    -6.5320  -6.4371  -6.4123  -6.3822  -6.2682  -6.0233  -5.9747  -5.4204
    -5.2502  -5.2045  -5.1722  -5.1552  -5.1052  -5.0497  -4.8123  -4.7540
    -4.6627  -4.6243  -4.5683  -4.4885  -4.4718  -4.4699  -4.4455  -4.2905
    -4.0461  -4.0332  -3.9866  -3.7076  -3.5920  -3.5252  -3.4392  -3.2914
    -3.2210  -3.1373  -3.1311  -3.0830  -3.0531  -2.9680  -2.9211  -2.7415
    -2.6286  -2.4675  -2.2798  -2.0989  -2.0601  -1.9773  -1.9504  -1.7652
    -1.7138  -1.6927  -1.6150  -1.5857  -1.4863  -1.2834   0.2599   0.2800
     0.9677   1.0397   1.2705   1.3848   1.4148   1.4647   1.4910   1.5971
     1.6964   1.7609   1.8108   1.8752   1.8795   1.9353   2.0101   2.1600
     2.1892   2.2546   2.3358   2.3469

          k = 0.4897-0.3198 0.0000 ( 70208 PWs)   bands (ev):

   -15.2586 -15.1544 -14.5669 -14.4104 -14.2097 -14.1182 -13.8126 -13.7057
   -13.6345 -13.5897 -13.5792 -13.5544 -13.3821 -13.2558 -13.2246 -13.2179
   -13.1967  -7.3457  -6.9151  -6.8800  -6.8011  -6.7658  -6.6912  -6.6086
    -6.5338  -6.4420  -6.4093  -6.3792  -6.2686  -6.0237  -5.9728  -5.4207
    -5.2590  -5.2191  -5.1633  -5.1466  -5.1097  -5.0393  -4.8197  -4.7461
    -4.6615  -4.6245  -4.5729  -4.4940  -4.4728  -4.4701  -4.4316  -4.2889
    -4.0518  -4.0312  -3.9857  -3.7119  -3.6014  -3.5136  -3.4341  -3.2923
    -3.2236  -3.1427  -3.1308  -3.0848  -3.0593  -2.9613  -2.9223  -2.7386
    -2.6289  -2.4677  -2.2765  -2.1086  -2.0579  -1.9858  -1.9344  -1.7658
    -1.7143  -1.6928  -1.6160  -1.5860  -1.4848  -1.2832   0.2513   0.2891
     0.9680   1.0422   1.2693   1.3749   1.4221   1.4646   1.4928   1.5976
     1.6958   1.7621   1.8083   1.8738   1.8794   1.9351   2.0117   2.1601
     2.1894   2.2533   2.3346   2.3417

          k = 0.4816-0.3337 0.0000 ( 70168 PWs)   bands (ev):

   -15.2570 -15.1532 -14.5900 -14.3871 -14.2087 -14.1174 -13.8228 -13.6975
   -13.6465 -13.5885 -13.5726 -13.5519 -13.3816 -13.2620 -13.2210 -13.2171
   -13.1962  -7.3440  -6.9300  -6.8838  -6.7944  -6.7568  -6.6897  -6.6075
    -6.5365  -6.4484  -6.4063  -6.3742  -6.2692  -6.0244  -5.9697  -5.4212
    -5.2712  -5.2355  -5.1599  -5.1330  -5.1113  -5.0260  -4.8285  -4.7368
    -4.6594  -4.6249  -4.5790  -4.5012  -4.4742  -4.4675  -4.4152  -4.2860
    -4.0594  -4.0295  -3.9844  -3.7183  -3.6132  -3.4988  -3.4258  -3.2940
    -3.2278  -3.1514  -3.1310  -3.0879  -3.0670  -2.9521  -2.9240  -2.7341
    -2.6295  -2.4680  -2.2713  -2.1240  -2.0542  -1.9904  -1.9181  -1.7668
    -1.7150  -1.6932  -1.6175  -1.5866  -1.4824  -1.2828   0.2428   0.2985
     0.9685   1.0462   1.2674   1.3634   1.4287   1.4649   1.4958   1.5985
     1.6948   1.7640   1.8045   1.8720   1.8786   1.9349   2.0142   2.1604
     2.1896   2.2511   2.3321   2.3342

          k = 0.4736-0.3476 0.0000 ( 70192 PWs)   bands (ev):

   -15.2549 -15.1515 -14.6153 -14.3615 -14.2074 -14.1162 -13.8349 -13.6889
   -13.6588 -13.5895 -13.5637 -13.5490 -13.3808 -13.2688 -13.2204 -13.2135
   -13.1956  -7.3416  -6.9458  -6.8919  -6.7847  -6.7470  -6.6877  -6.6061
    -6.5399  -6.4557  -6.4038  -6.3672  -6.2702  -6.0253  -5.9655  -5.4221
    -5.2856  -5.2528  -5.1622  -5.1176  -5.1068  -5.0114  -4.8371  -4.7279
    -4.6565  -4.6256  -4.5852  -4.5086  -4.4758  -4.4637  -4.3980  -4.2814
    -4.0682  -4.0283  -3.9826  -3.7262  -3.6258  -3.4827  -3.4149  -3.2964
    -3.2336  -3.1633  -3.1316  -3.0929  -3.0740  -2.9420  -2.9255  -2.7284
    -2.6304  -2.4686  -2.2644  -2.1439  -2.0491  -1.9914  -1.9020  -1.7684
    -1.7156  -1.6941  -1.6191  -1.5875  -1.4792  -1.2822   0.2346   0.3080
     0.9696   1.0515   1.2647   1.3512   1.4331   1.4663   1.5000   1.5998
     1.6933   1.7659   1.7999   1.8701   1.8765   1.9349   2.0176   2.1609
     2.1896   2.2480   2.3230   2.3302

          k = 0.4656-0.3615 0.0000 ( 70182 PWs)   bands (ev):

   -15.2521 -15.1493 -14.6416 -14.3350 -14.2056 -14.1147 -13.8480 -13.6820
   -13.6706 -13.5901 -13.5545 -13.5459 -13.3800 -13.2760 -13.2210 -13.2090
   -13.1949  -7.3387  -6.9618  -6.9025  -6.7735  -6.7368  -6.6850  -6.6045
    -6.5439  -6.4637  -6.4021  -6.3584  -6.2717  -6.0263  -5.9602  -5.4238
    -5.3019  -5.2697  -5.1681  -5.1050  -5.0942  -4.9962  -4.8449  -4.7205
    -4.6535  -4.6272  -4.5895  -4.5158  -4.4779  -4.4595  -4.3811  -4.2746
    -4.0779  -4.0277  -3.9804  -3.7349  -3.6389  -3.4668  -3.4017  -3.2994
    -3.2407  -3.1783  -3.1327  -3.0995  -3.0791  -2.9336  -2.9245  -2.7217
    -2.6316  -2.4695  -2.2565  -2.1666  -2.0429  -1.9894  -1.8865  -1.7706
    -1.7159  -1.6956  -1.6208  -1.5888  -1.4755  -1.2816   0.2267   0.3175
     0.9713   1.0579   1.2613   1.3386   1.4349   1.4691   1.5054   1.6016
     1.6913   1.7672   1.7952   1.8684   1.8731   1.9352   2.0218   2.1616
     2.1894   2.2442   2.3114   2.3267

          k = 0.4576-0.3754 0.0000 ( 70172 PWs)   bands (ev):

   -15.2488 -15.1466 -14.6683 -14.3081 -14.2033 -14.1129 -13.8618 -13.6870
   -13.6726 -13.5888 -13.5458 -13.5427 -13.3790 -13.2835 -13.2219 -13.2046
   -13.1941  -7.3351  -6.9780  -6.9146  -6.7618  -6.7266  -6.6819  -6.6027
    -6.5480  -6.4719  -6.4012  -6.3483  -6.2736  -6.0273  -5.9540  -5.4268
    -5.3200  -5.2852  -5.1752  -5.0951  -5.0762  -4.9807  -4.8514  -4.7148
    -4.6511  -4.6302  -4.5903  -4.5228  -4.4804  -4.4551  -4.3660  -4.2650
    -4.0880  -4.0276  -3.9776  -3.7437  -3.6521  -3.4526  -3.3864  -3.3026
    -3.2490  -3.1961  -3.1344  -3.1066  -3.0826  -2.9319  -2.9161  -2.7146
    -2.6333  -2.4708  -2.2491  -2.1901  -2.0357  -1.9851  -1.8719  -1.7733
    -1.7160  -1.6975  -1.6224  -1.5904  -1.4715  -1.2809   0.2192   0.3267
     0.9739   1.0652   1.2573   1.3257   1.4344   1.4727   1.5121   1.6038
     1.6888   1.7668   1.7912   1.8668   1.8688   1.9361   2.0266   2.1626
     2.1889   2.2395   2.2992   2.3225

          k = 0.4495-0.3893 0.0000 ( 70160 PWs)   bands (ev):

   -15.2448 -15.1435 -14.6951 -14.2813 -14.2005 -14.1105 -13.8759 -13.6999
   -13.6698 -13.5850 -13.5398 -13.5371 -13.3781 -13.2913 -13.2229 -13.2004
   -13.1932  -7.3308  -6.9942  -6.9275  -6.7502  -6.7165  -6.6781  -6.6009
    -6.5523  -6.4803  -6.4009  -6.3370  -6.2760  -6.0283  -5.9470  -5.4321
    -5.3385  -5.2988  -5.1825  -5.0853  -5.0569  -4.9651  -4.8566  -4.7108
    -4.6501  -4.6346  -4.5870  -4.5293  -4.4833  -4.4507  -4.3537  -4.2525
    -4.0979  -4.0280  -3.9738  -3.7524  -3.6652  -3.4418  -3.3695  -3.3052
    -3.2585  -3.2157  -3.1368  -3.1130  -3.0851  -2.9323  -2.9052  -2.7073
    -2.6354  -2.4725  -2.2481  -2.2078  -2.0277  -1.9789  -1.8583  -1.7765
    -1.7161  -1.6997  -1.6237  -1.5924  -1.4672  -1.2802   0.2122   0.3358
     0.9775   1.0731   1.2528   1.3126   1.4322   1.4765   1.5199   1.6066
     1.6858   1.7641   1.7881   1.8611   1.8682   1.9374   2.0321   2.1636
     2.1881   2.2338   2.2872   2.3177

          k = 0.4415-0.4032 0.0000 ( 70188 PWs)   bands (ev):

   -15.2402 -15.1400 -14.7218 -14.2552 -14.1969 -14.1077 -13.8901 -13.7136
   -13.6695 -13.5784 -13.5366 -13.5293 -13.3772 -13.2992 -13.2239 -13.1966
   -13.1922  -7.3261  -7.0101  -6.9408  -6.7390  -6.7067  -6.6737  -6.5992
[...]
    -2.6393  -2.5055  -2.4692  -2.3858  -2.1508  -2.1288  -2.0871  -2.0167
    -1.9361  -1.9085  -1.5229  -1.3766  -1.3190  -1.1606   0.2052   0.2545
     1.0883   1.1124   1.1418   1.1912   1.2998   1.3998   1.4952   1.5792
     1.6286   1.7851   1.8194   1.8489   1.8799   1.9337   1.9629   2.0942
     2.1237   2.1642   2.2635   2.3305

          k = 0.1284-0.2225 0.0000 ( 70257 PWs)   bands (ev):

   -15.5383 -14.6388 -14.5783 -14.3707 -14.2037 -14.0780 -13.8687 -13.8497
   -13.8050 -13.6961 -13.6022 -13.4809 -13.3692 -13.3405 -13.3230 -13.1318
   -13.0403  -7.0862  -7.0124  -6.9465  -6.7924  -6.7544  -6.6748  -6.6153
    -6.4744  -6.4151  -6.3659  -6.3334  -6.0809  -5.8898  -5.7001  -5.5443
    -5.3562  -5.3225  -5.2545  -5.2176  -5.1860  -5.1538  -5.1475  -5.0682
    -4.8741  -4.8140  -4.6560  -4.4979  -4.4632  -4.3251  -4.2574  -4.2191
    -4.0130  -3.9969  -3.8479  -3.7175  -3.5892  -3.4904  -3.3986  -3.1896
    -3.0960  -3.0432  -2.9149  -2.8958  -2.8484  -2.7739  -2.7262  -2.6981
    -2.6401  -2.4977  -2.4742  -2.3887  -2.1636  -2.1419  -2.1045  -2.0338
    -1.9536  -1.9218  -1.5233  -1.3578  -1.3087  -1.1537   0.2046   0.2466
     1.0912   1.1089   1.1391   1.1945   1.2975   1.3964   1.4875   1.5741
     1.6200   1.7715   1.8071   1.8353   1.8712   1.9263   1.9762   2.1079
     2.1198   2.1643   2.2598   2.3489

          k = 0.1204-0.2086 0.0000 ( 70261 PWs)   bands (ev):

   -15.5481 -14.6150 -14.5584 -14.3759 -14.2106 -14.0851 -13.8764 -13.8509
   -13.8039 -13.7037 -13.6065 -13.4859 -13.3813 -13.3379 -13.3171 -13.1272
   -13.0344  -7.0686  -7.0117  -6.9443  -6.7977  -6.7633  -6.6792  -6.6134
    -6.4771  -6.4117  -6.3442  -6.3239  -6.0623  -5.8766  -5.6974  -5.5460
    -5.3590  -5.3271  -5.2609  -5.2374  -5.2068  -5.1739  -5.1695  -5.0700
    -4.8832  -4.8301  -4.6763  -4.5005  -4.4554  -4.3226  -4.2429  -4.2000
    -4.0021  -3.9828  -3.8441  -3.7217  -3.5670  -3.4847  -3.4001  -3.1996
    -3.0972  -3.0403  -2.9163  -2.8664  -2.8247  -2.7781  -2.7221  -2.7031
    -2.6336  -2.4905  -2.4790  -2.3893  -2.1766  -2.1547  -2.1219  -2.0512
    -1.9715  -1.9353  -1.5239  -1.3395  -1.2982  -1.1470   0.2036   0.2390
     1.0908   1.1015   1.1412   1.1992   1.2981   1.3938   1.4802   1.5689
     1.6111   1.7553   1.7943   1.8188   1.8659   1.9192   1.9889   2.1105
     2.1189   2.1720   2.2574   2.3692

          k = 0.1124-0.1947 0.0000 ( 70221 PWs)   bands (ev):

   -15.5572 -14.5910 -14.5385 -14.3805 -14.2171 -14.0923 -13.8915 -13.8537
   -13.7961 -13.7093 -13.6105 -13.4915 -13.3936 -13.3364 -13.3104 -13.1227
   -13.0289  -7.0506  -7.0143  -6.9381  -6.8037  -6.7706  -6.6837  -6.6125
    -6.4812  -6.4131  -6.3207  -6.3087  -6.0433  -5.8630  -5.6950  -5.5484
    -5.3652  -5.3323  -5.2679  -5.2652  -5.2227  -5.1908  -5.1885  -5.0710
    -4.8916  -4.8449  -4.6987  -4.5006  -4.4467  -4.3223  -4.2270  -4.1779
    -3.9949  -3.9661  -3.8409  -3.7260  -3.5456  -3.4789  -3.4012  -3.2096
    -3.0984  -3.0378  -2.9215  -2.8382  -2.8115  -2.7722  -2.7229  -2.7072
    -2.6210  -2.4905  -2.4762  -2.3883  -2.1896  -2.1671  -2.1391  -2.0688
    -1.9894  -1.9492  -1.5247  -1.3218  -1.2876  -1.1406   0.2023   0.2316
     1.0868   1.0916   1.1474   1.2057   1.3009   1.3923   1.4732   1.5637
     1.6022   1.7375   1.7812   1.8010   1.8623   1.9123   1.9998   2.1035
     2.1220   2.1855   2.2571   2.3903

          k = 0.1044-0.1808 0.0000 ( 70225 PWs)   bands (ev):

   -15.5657 -14.5668 -14.5189 -14.3844 -14.2231 -14.0996 -13.9108 -13.8579
   -13.7853 -13.7126 -13.6141 -13.4974 -13.4062 -13.3355 -13.3036 -13.1185
   -13.0237  -7.0327  -7.0184  -6.9295  -6.8102  -6.7762  -6.6883  -6.6126
    -6.4865  -6.4183  -6.2957  -6.2890  -6.0238  -5.8490  -5.6927  -5.5516
    -5.3766  -5.3374  -5.2982  -5.2740  -5.2385  -5.2054  -5.2027  -5.0712
    -4.8996  -4.8586  -4.7218  -4.4988  -4.4377  -4.3235  -4.2101  -4.1545
    -3.9888  -3.9499  -3.8378  -3.7302  -3.5256  -3.4724  -3.4020  -3.2196
    -3.1000  -3.0353  -2.9272  -2.8258  -2.8033  -2.7543  -2.7244  -2.7078
    -2.6052  -2.4956  -2.4672  -2.3863  -2.2026  -2.1793  -2.1561  -2.0866
    -2.0073  -1.9635  -1.5257  -1.3049  -1.2770  -1.1345   0.2008   0.2246
     1.0794   1.0806   1.1564   1.2140   1.3055   1.3918   1.4667   1.5581
     1.5935   1.7185   1.7678   1.7830   1.8598   1.9054   2.0083   2.0942
     2.1264   2.1997   2.2601   2.4117

          k = 0.0963-0.1668 0.0000 ( 70225 PWs)   bands (ev):

   -15.5737 -14.5426 -14.4997 -14.3874 -14.2287 -14.1070 -13.9320 -13.8637
   -13.7733 -13.7136 -13.6173 -13.5038 -13.4190 -13.3348 -13.2970 -13.1145
   -13.0188  -7.0267  -7.0114  -6.9198  -6.8172  -6.7799  -6.6929  -6.6135
    -6.4927  -6.4261  -6.2696  -6.2662  -6.0041  -5.8348  -5.6905  -5.5557
    -5.3932  -5.3451  -5.3284  -5.2812  -5.2568  -5.2160  -5.2135  -5.0709
    -4.9071  -4.8712  -4.7443  -4.4955  -4.4286  -4.3257  -4.1926  -4.1304
    -3.9831  -3.9355  -3.8346  -3.7344  -3.5087  -3.4639  -3.4025  -3.2294
    -3.1020  -3.0327  -2.9329  -2.8339  -2.7902  -2.7432  -2.7154  -2.7009
    -2.5882  -2.5001  -2.4569  -2.3838  -2.2154  -2.1913  -2.1730  -2.1046
    -2.0249  -1.9783  -1.5268  -1.2888  -1.2664  -1.1288   0.1989   0.2180
     1.0686   1.0704   1.1674   1.2238   1.3113   1.3924   1.4606   1.5521
     1.5851   1.6988   1.7543   1.7651   1.8578   1.8987   2.0139   2.0841
     2.1330   2.2108   2.2678   2.4331

          k = 0.0883-0.1529 0.0000 ( 70219 PWs)   bands (ev):

   -15.5810 -14.5184 -14.4813 -14.3892 -14.2339 -14.1146 -13.9543 -13.8711
   -13.7608 -13.7126 -13.6202 -13.5103 -13.4320 -13.3342 -13.2908 -13.1107
   -13.0142  -7.0321  -6.9929  -6.9099  -6.8243  -6.7816  -6.6973  -6.6151
    -6.4997  -6.4359  -6.2425  -6.2412  -5.9841  -5.8205  -5.6883  -5.5607
    -5.4141  -5.3718  -5.3396  -5.2890  -5.2765  -5.2232  -5.2217  -5.0701
    -4.9141  -4.8830  -4.7651  -4.4912  -4.4196  -4.3284  -4.1747  -4.1065
    -3.9777  -3.9235  -3.8307  -3.7386  -3.4964  -3.4517  -3.4025  -3.2391
    -3.1048  -3.0298  -2.9383  -2.8470  -2.7853  -2.7461  -2.6923  -2.6844
    -2.5711  -2.5030  -2.4459  -2.3809  -2.2280  -2.2031  -2.1896  -2.1227
    -2.0421  -1.9935  -1.5280  -1.2736  -1.2561  -1.1233   0.1969   0.2119
     1.0568   1.0598   1.1798   1.2349   1.3178   1.3940   1.4550   1.5451
     1.5776   1.6787   1.7407   1.7474   1.8562   1.8920   2.0171   2.0740
     2.1417   2.2174   2.2807   2.4542

          k = 0.0803-0.1390 0.0000 ( 70225 PWs)   bands (ev):

   -15.5876 -14.4945 -14.4640 -14.3891 -14.2386 -14.1225 -13.9773 -13.8796
   -13.7480 -13.7099 -13.6225 -13.5171 -13.4451 -13.3337 -13.2850 -13.1072
   -13.0100  -7.0380  -6.9737  -6.9006  -6.8312  -6.7814  -6.7017  -6.6173
    -6.5072  -6.4470  -6.2150  -6.2143  -5.9640  -5.8060  -5.6861  -5.5670
    -5.4383  -5.4056  -5.3438  -5.2989  -5.2949  -5.2285  -5.2276  -5.0688
    -4.9206  -4.8939  -4.7837  -4.4862  -4.4109  -4.3315  -4.1567  -4.0830
    -3.9727  -3.9148  -3.8255  -3.7426  -3.4888  -3.4359  -3.4022  -3.2484
    -3.1084  -3.0264  -2.9433  -2.8617  -2.7874  -2.7530  -2.6655  -2.6620
    -2.5550  -2.5035  -2.4344  -2.3778  -2.2403  -2.2148  -2.2061  -2.1408
    -2.0587  -2.0093  -1.5292  -1.2595  -1.2461  -1.1182   0.1947   0.2062
     1.0452   1.0486   1.1934   1.2470   1.3248   1.3964   1.4499   1.5370
     1.5711   1.6586   1.7272   1.7303   1.8549   1.8855   2.0185   2.0643
     2.1518   2.2206   2.2970   2.4746

          k = 0.0722-0.1251 0.0000 ( 70203 PWs)   bands (ev):

   -15.5937 -14.4719 -14.4479 -14.3861 -14.2427 -14.1308 -14.0009 -13.8889
   -13.7353 -13.7060 -13.6243 -13.5239 -13.4584 -13.3333 -13.2798 -13.1040
   -13.0062  -7.0437  -6.9545  -6.8923  -6.8377  -6.7794  -6.7058  -6.6199
    -6.5149  -6.4591  -6.1875  -6.1860  -5.9440  -5.7915  -5.6838  -5.5747
    -5.4651  -5.4394  -5.3483  -5.3169  -5.3046  -5.2327  -5.2316  -5.0672
    -4.9266  -4.9041  -4.8000  -4.4807  -4.4024  -4.3349  -4.1387  -4.0604
    -3.9680  -3.9096  -3.8189  -3.7464  -3.4845  -3.4182  -3.4015  -3.2575
    -3.1130  -3.0224  -2.9476  -2.8771  -2.7929  -2.7616  -2.6378  -2.6375
    -2.5404  -2.5014  -2.4223  -2.3745  -2.2523  -2.2269  -2.2218  -2.1589
    -2.0744  -2.0255  -1.5305  -1.2465  -1.2366  -1.1135   0.1925   0.2009
     1.0340   1.0373   1.2079   1.2598   1.3319   1.3993   1.4455   1.5277
     1.5658   1.6390   1.7123   1.7154   1.8536   1.8793   2.0187   2.0551
     2.1626   2.2220   2.3148   2.4943

          k = 0.0642-0.1112 0.0000 ( 70213 PWs)   bands (ev):

   -15.5991 -14.4535 -14.4314 -14.3793 -14.2464 -14.1394 -14.0248 -13.8984
   -13.7229 -13.7012 -13.6255 -13.5308 -13.4718 -13.3329 -13.2750 -13.1010
   -13.0028  -7.0490  -6.9356  -6.8853  -6.8436  -6.7756  -6.7097  -6.6229
    -6.5227  -6.4720  -6.1595  -6.1573  -5.9241  -5.7771  -5.6815  -5.5841
    -5.4940  -5.4720  -5.3540  -5.3350  -5.3121  -5.2357  -5.2346  -5.0655
    -4.9320  -4.9136  -4.8137  -4.4750  -4.3945  -4.3386  -4.1209  -4.0390
    -3.9637  -3.9079  -3.8110  -3.7501  -3.4819  -3.4005  -3.3999  -3.2663
    -3.1183  -3.0177  -2.9513  -2.8923  -2.7998  -2.7713  -2.6126  -2.6102
    -2.5281  -2.4964  -2.4099  -2.3709  -2.2640  -2.2409  -2.2353  -2.1768
    -2.0891  -2.0421  -1.5317  -1.2347  -1.2276  -1.1093   0.1902   0.1963
     1.0234   1.0264   1.2232   1.2733   1.3391   1.4019   1.4419   1.5172
     1.5614   1.6204   1.6960   1.7028   1.8525   1.8734   2.0181   2.0467
     2.1734   2.2225   2.3327   2.5129

          k = 0.0562-0.0973 0.0000 ( 70251 PWs)   bands (ev):

   -15.6039 -14.4429 -14.4111 -14.3684 -14.2496 -14.1486 -14.0491 -13.9077
   -13.7109 -13.6959 -13.6258 -13.5375 -13.4853 -13.3326 -13.2708 -13.0984
   -12.9997  -7.0537  -6.9173  -6.8796  -6.8484  -6.7706  -6.7136  -6.6260
    -6.5303  -6.4853  -6.1313  -6.1288  -5.9046  -5.7628  -5.6790  -5.5954
    -5.5244  -5.5027  -5.3613  -5.3515  -5.3181  -5.2379  -5.2368  -5.0636
    -4.9368  -4.9222  -4.8251  -4.4693  -4.3871  -4.3423  -4.1035  -4.0191
    -3.9598  -3.9090  -3.8025  -3.7534  -3.4803  -3.3988  -3.3825  -3.2746
    -3.1244  -3.0122  -2.9543  -2.9071  -2.8071  -2.7817  -2.5882  -2.5833
    -2.5179  -2.4887  -2.3983  -2.3662  -2.2753  -2.2563  -2.2466  -2.1945
    -2.1026  -2.0590  -1.5328  -1.2241  -1.2193  -1.1054   0.1879   0.1921
     1.0137   1.0162   1.2392   1.2872   1.3462   1.4037   1.4393   1.5056
     1.5577   1.6034   1.6798   1.6913   1.8515   1.8679   2.0173   2.0392
     2.1837   2.2226   2.3500   2.5301

          k = 0.0482-0.0834 0.0000 ( 70261 PWs)   bands (ev):

   -15.6081 -14.4382 -14.3882 -14.3546 -14.2521 -14.1582 -14.0735 -13.9165
   -13.6998 -13.6903 -13.6250 -13.5441 -13.4988 -13.3323 -13.2671 -13.0961
   -12.9971  -7.0580  -6.9008  -6.8751  -6.8514  -6.7648  -6.7174  -6.6289
    -6.5372  -6.4989  -6.1033  -6.1008  -5.8857  -5.7486  -5.6765  -5.6088
    -5.5555  -5.5310  -5.3702  -5.3660  -5.3226  -5.2394  -5.2384  -5.0617
    -4.9410  -4.9300  -4.8343  -4.4637  -4.3805  -4.3461  -4.0866  -4.0011
    -3.9564  -3.9125  -3.7939  -3.7564  -3.4794  -3.3970  -3.3658  -3.2825
    -3.1308  -3.0062  -2.9567  -2.9208  -2.8141  -2.7925  -2.5648  -2.5576
    -2.5091  -2.4795  -2.3892  -2.3595  -2.2867  -2.2713  -2.2570  -2.2115
    -2.1146  -2.0760  -1.5339  -1.2149  -1.2119  -1.1021   0.1858   0.1885
     1.0048   1.0068   1.2558   1.3013   1.3532   1.4037   1.4378   1.4931
     1.5546   1.5889   1.6641   1.6809   1.8507   1.8629   2.0164   2.0325
     2.1932   2.2226   2.3663   2.5458

          k = 0.0401-0.0695 0.0000 ( 70233 PWs)   bands (ev):

   -15.6116 -14.4362 -14.3645 -14.3394 -14.2538 -14.1683 -14.0981 -13.9244
   -13.6899 -13.6848 -13.6227 -13.5503 -13.5122 -13.3321 -13.2639 -13.0941
   -12.9948  -7.0616  -6.8878  -6.8717  -6.8507  -6.7589  -6.7215  -6.6312
    -6.5434  -6.5125  -6.0762  -6.0739  -5.8676  -5.7346  -5.6743  -5.6240
    -5.5861  -5.5569  -5.3801  -5.3778  -5.3257  -5.2405  -5.2397  -5.0599
    -4.9446  -4.9367  -4.8417  -4.4583  -4.3747  -4.3498  -4.0704  -3.9853
    -3.9534  -3.9177  -3.7859  -3.7591  -3.4789  -3.3949  -3.3504  -3.2898
    -3.1374  -2.9999  -2.9586  -2.9332  -2.8206  -2.8034  -2.5427  -2.5338
    -2.5005  -2.4694  -2.3844  -2.3500  -2.2984  -2.2842  -2.2667  -2.2276
    -2.1250  -2.0928  -1.5348  -1.2071  -1.2053  -1.0992   0.1839   0.1855
     0.9971   0.9985   1.2727   1.3156   1.3599   1.4017   1.4367   1.4797
     1.5522   1.5776   1.6488   1.6718   1.8499   1.8586   2.0156   2.0268
     2.2017   2.2224   2.3810   2.5597

          k = 0.0321-0.0556 0.0000 ( 70229 PWs)   bands (ev):

   -15.6144 -14.4355 -14.3412 -14.3238 -14.2545 -14.1788 -14.1228 -13.9313
   -13.6819 -13.6795 -13.6184 -13.5559 -13.5256 -13.3319 -13.2614 -13.0925
   -12.9930  -7.0646  -6.8802  -6.8707  -6.8433  -6.7537  -6.7261  -6.6322
    -6.5487  -6.5256  -6.0509  -6.0490  -5.8507  -5.7207  -5.6734  -5.6403
    -5.6145  -5.5805  -5.3896  -5.3874  -5.3280  -5.2412  -5.2406  -5.0583
    -4.9475  -4.9424  -4.8473  -4.4534  -4.3698  -4.3532  -4.0553  -3.9719
    -3.9510  -3.9240  -3.7789  -3.7613  -3.4787  -3.3927  -3.3369  -3.2963
    -3.1437  -2.9937  -2.9600  -2.9438  -2.8262  -2.8137  -2.5229  -2.5134
    -2.4907  -2.4585  -2.3839  -2.3415  -2.3090  -2.2938  -2.2756  -2.2422
    -2.1336  -2.1092  -1.5356  -1.2006  -1.1997  -1.0968   0.1822   0.1831
     0.9906   0.9916   1.2897   1.3297   1.3663   1.3979   1.4350   1.4656
     1.5508   1.5698   1.6342   1.6640   1.8492   1.8549   2.0148   2.0220
     2.2088   2.2223   2.3938   2.5716

          k = 0.0241-0.0417 0.0000 ( 70225 PWs)   bands (ev):

   -15.6167 -14.4353 -14.3193 -14.3090 -14.2534 -14.1893 -14.1473 -13.9368
   -13.6759 -13.6749 -13.6122 -13.5607 -13.5387 -13.3317 -13.2594 -13.0912
   -12.9916  -7.0669  -6.8765  -6.8715  -6.8313  -6.7497  -6.7315  -6.6317
    -6.5528  -6.5378  -6.0284  -6.0270  -5.8354  -5.7066  -5.6757  -5.6566
    -5.6372  -5.6018  -5.3973  -5.3955  -5.3295  -5.2417  -5.2413  -5.0569
    -4.9498  -4.9468  -4.8515  -4.4492  -4.3659  -4.3563  -4.0417  -3.9611
    -3.9491  -3.9309  -3.7732  -3.7631  -3.4787  -3.3906  -3.3256  -3.3017
    -3.1493  -2.9879  -2.9611  -2.9523  -2.8308  -2.8230  -2.5066  -2.4994
    -2.4772  -2.4461  -2.3871  -2.3437  -2.3105  -2.3000  -2.2836  -2.2542
    -2.1404  -2.1243  -1.5362  -1.1956  -1.1953  -1.0949   0.1808   0.1812
     0.9855   0.9860   1.3064   1.3436   1.3722   1.3926   1.4320   1.4512
     1.5514   1.5649   1.6205   1.6578   1.8487   1.8520   2.0142   2.0183
     2.2145   2.2221   2.4043   2.5810

          k = 0.0161-0.0278 0.0000 ( 70253 PWs)   bands (ev):

   -15.6183 -14.4353 -14.3008 -14.2961 -14.2486 -14.1990 -14.1714 -13.9408
   -13.6719 -13.6714 -13.6041 -13.5645 -13.5512 -13.3316 -13.2580 -13.0903
   -12.9905  -7.0686  -6.8748  -6.8726  -6.8190  -6.7469  -6.7374  -6.6299
    -6.5557  -6.5481  -6.0103  -6.0095  -5.8223  -5.6925  -5.6827  -5.6740
    -5.6477  -5.6215  -5.4028  -5.4018  -5.3306  -5.2420  -5.2417  -5.0559
    -4.9514  -4.9501  -4.8544  -4.4460  -4.3631  -4.3587  -4.0304  -3.9534
    -3.9478  -3.9374  -3.7690  -3.7644  -3.4787  -3.3888  -3.3170  -3.3060
    -3.1538  -2.9834  -2.9618  -2.9582  -2.8342  -2.8304  -2.4950  -2.4916
    -2.4609  -2.4318  -2.3936  -2.3567  -2.3042  -2.3031  -2.2902  -2.2627
    -2.1453  -2.1370  -1.5367  -1.1921  -1.1920  -1.0935   0.1797   0.1799
     0.9817   0.9820   1.3221   1.3566   1.3765   1.3865   1.4279   1.4376
     1.5543   1.5621   1.6083   1.6533   1.8483   1.8498   2.0138   2.0156
     2.2186   2.2220   2.4122   2.5880

          k = 0.0080-0.0139 0.0000 ( 70263 PWs)   bands (ev):

   -15.6192 -14.4354 -14.2886 -14.2873 -14.2377 -14.2066 -14.1943 -13.9433
   -13.6695 -13.6694 -13.5956 -13.5668 -13.5622 -13.3315 -13.2571 -13.0898
   -12.9899  -7.0696  -6.8739  -6.8734  -6.8095  -6.7453  -6.7427  -6.6277
    -6.5575  -6.5554  -5.9983  -5.9980  -5.8128  -5.6915  -5.6887  -5.6767
    -5.6502  -5.6392  -5.4060  -5.4058  -5.3311  -5.2421  -5.2420  -5.0552
    -4.9524  -4.9520  -4.8561  -4.4439  -4.3614  -4.3602  -4.0225  -3.9488
    -3.9473  -3.9419  -3.7664  -3.7651  -3.4787  -3.3876  -3.3116  -3.3086
    -3.1568  -2.9808  -2.9622  -2.9615  -2.8362  -2.8353  -2.4883  -2.4875
    -2.4460  -2.4165  -2.4021  -2.3719  -2.3043  -2.2988  -2.2952  -2.2668
    -2.1482  -2.1459  -1.5370  -1.1900  -1.1900  -1.0927   0.1790   0.1792
     0.9794   0.9796   1.3350   1.3677   1.3761   1.3829   1.4240   1.4268
     1.5582   1.5607   1.5989   1.6505   1.8481   1.8485   2.0135   2.0140
     2.2211   2.2220   2.4170   2.5922

          k = 0.0000 0.0000 0.0000 ( 70261 PWs)   bands (ev):

   -15.6196 -14.4355 -14.2844 -14.2843 -14.2259 -14.2098 -14.2095 -13.9441
   -13.6687 -13.6687 -13.5908 -13.5678 -13.5677 -13.3315 -13.2568 -13.0896
   -12.9897  -7.0699  -6.8737  -6.8737  -6.8058  -6.7449  -6.7448  -6.6267
    -6.5581  -6.5580  -5.9942  -5.9940  -5.8092  -5.6944  -5.6944  -5.6667
    -5.6505  -5.6505  -5.4072  -5.4070  -5.3313  -5.2422  -5.2421  -5.0550
    -4.9527  -4.9527  -4.8566  -4.4432  -4.3608  -4.3607  -4.0196  -3.9475
    -3.9473  -3.9432  -3.7656  -3.7654  -3.4787  -3.3872  -3.3098  -3.3095
    -3.1578  -2.9799  -2.9624  -2.9623  -2.8370  -2.8369  -2.4863  -2.4860
    -2.4386  -2.4073  -2.4072  -2.3812  -2.3042  -2.2972  -2.2972  -2.2677
    -2.1493  -2.1492  -1.5371  -1.1893  -1.1893  -1.0924   0.1787   0.1789
     0.9786   0.9788   1.3408   1.3732   1.3733   1.3821   1.4223   1.4224
     1.5602   1.5603   1.5950   1.6496   1.8480   1.8481   2.0135   2.0135
     2.2219   2.2220   2.4187   2.5935

     Writing output data file ./out/3x3_MoS2.save/

     init_run     :      6.74s CPU      7.06s WALL (       1 calls)
     electrons    :  36366.06s CPU  36920.22s WALL (       1 calls)

     Called by init_run:
     wfcinit      :      0.00s CPU      0.00s WALL (       1 calls)
     wfcinit:atom :      3.18s CPU      6.21s WALL (     100 calls)
     wfcinit:wfcr :   5437.67s CPU   5521.84s WALL (     100 calls)
     potinit      :      0.45s CPU      0.54s WALL (       1 calls)
     hinit0       :      1.19s CPU      1.23s WALL (       1 calls)

     Called by electrons:
     c_bands      :  36366.05s CPU  36920.21s WALL (       1 calls)
     v_of_rho     :      0.14s CPU      0.15s WALL (       1 calls)
     v_h          :      0.09s CPU      0.10s WALL (       1 calls)
     v_xc         :      0.05s CPU      0.05s WALL (       1 calls)

     Called by c_bands:
     init_us_2    :      3.32s CPU      3.50s WALL (     100 calls)
     cegterg      :  30682.22s CPU  31145.06s WALL (     238 calls)

     Called by sum_band:

     Called by *egterg:
     h_psi        :  15786.62s CPU  16218.04s WALL (    4661 calls)
     g_psi        :      7.93s CPU      8.10s WALL (    4323 calls)
     cdiaghg      :    846.12s CPU    849.41s WALL (    4423 calls)
     cegterg:over :   8354.10s CPU   8398.40s WALL (    4323 calls)
     cegterg:upda :   2661.10s CPU   2685.90s WALL (    4323 calls)
     cegterg:last :   1798.82s CPU   1811.51s WALL (     738 calls)

     Called by h_psi:
     h_psi:calbec :   5929.65s CPU   5960.09s WALL (    4661 calls)
     vloc_psi     :   6657.67s CPU   7032.80s WALL (    4661 calls)
     add_vuspsi   :   3183.75s CPU   3200.61s WALL (    4661 calls)

     General routines
     calbec       :   5929.52s CPU   5960.01s WALL (    4661 calls)
     fft          :      0.31s CPU      0.34s WALL (       4 calls)
     ffts         :      0.03s CPU      0.03s WALL (       1 calls)
     fftw         :   6244.07s CPU   6610.42s WALL (  494602 calls)
     interpolate  :      0.11s CPU      0.11s WALL (       1 calls)
     davcio       :      0.10s CPU      1.85s WALL (     200 calls)

     Parallel routines
     fft_scatt_xy :    689.54s CPU    704.64s WALL (  494607 calls)
     fft_scatt_yz :   3859.91s CPU   4179.68s WALL (  494607 calls)

     PWSCF        :     10h 6m CPU     10h16m WALL


   This run was terminated on:  11:57: 8   8Jun2022            

=------------------------------------------------------------------------------=
   JOB DONE.
=------------------------------------------------------------------------------=
