
     Program PWSCF v.6.5Max starts on 11Apr2022 at  3:32:23 

     This program is part of the open-source Quantum ESPRESSO suite
     for quantum simulation of materials; please cite
         "P. Giannozzi et al., J. Phys.:Condens. Matter 21 395502 (2009);
         "P. Giannozzi et al., J. Phys.:Condens. Matter 29 465901 (2017);
          URL http://www.quantum-espresso.org", 
     in publications or presentations arising from this work. More details at
     http://www.quantum-espresso.org/quote

     Parallel version (MPI), running on    16 processors

     MPI processes distributed on     1 nodes
     R & G space division:  proc/nbgrp/npool/nimage =      16
     Waiting for input...
     Reading input from standard input

     Current dimensions of program PWSCF are:
     Max number of different atomic species (ntypx) = 10
     Max number of k-points (npk) =  40000
     Max angular momentum in pseudopotentials (lmaxx) =  3
               file Mo.pw-mt_fhi.UPF: wavefunction(s)  4f renormalized
               file S.pw-mt_fhi.UPF: wavefunction(s)  4f renormalized

     -------------------------------------------------
     Parameters for Dispersion (Grimme-D2) Correction:
     -------------------------------------------------
       atom      VdW radius       C_6     

        Mo         3.097        855.833
        S          3.180        193.230

     Subspace diagonalization in iterative solution of the eigenvalue problem:
     a serial algorithm will be used

     Message from routine setup:
     no reason to have ecutrho>4*ecutwfc

     Parallelization info
     --------------------
     sticks:   dense  smooth     PW     G-vecs:    dense   smooth      PW
     Min         795     318     87               141401    35774    5125
     Max         796     319     88               141408    35781    5132
     Sum       12727    5089   1393              2262485   572393   82025



     bravais-lattice index     =            0
     lattice parameter (alat)  =      17.5735  a.u.
     unit-cell volume          =    9116.3971 (a.u.)^3
     number of atoms/cell      =           26
     number of atomic types    =            2
     number of electrons       =       156.00
     number of Kohn-Sham states=          100
     kinetic-energy cutoff     =      60.0000  Ry
     charge density cutoff     =     600.0000  Ry
     convergence threshold     =      1.0E-08
     mixing beta               =       0.7000
     number of iterations used =            8  plain     mixing
     Exchange-correlation= SLA-PW
                           (   1   4   0   0   0   0   0)
     nstep                     =          400


     celldm(1)=  17.573519  celldm(2)=   0.000000  celldm(3)=   0.000000
     celldm(4)=   0.000000  celldm(5)=   0.000000  celldm(6)=   0.000000

     crystal axes: (cart. coord. in units of alat)
               a(1) = (   0.998112   0.000041   0.000000 )  
               a(2) = (  -0.499020   0.864411   0.000000 )  
               a(3) = (   0.000000   0.000000   1.946870 )  

     reciprocal axes: (cart. coord. in units 2 pi/alat)
               b(1) = (  1.001868  0.578373 -0.000000 )  
               b(2) = ( -0.000048  1.156829  0.000000 )  
               b(3) = (  0.000000 -0.000000  0.513645 )  


     PseudoPot. # 1 for Mo read from file:
     ./Mo.pw-mt_fhi.UPF
     MD5 check sum: 39557091c5c29ab518dcc42d2770f0a9
     Pseudo is Norm-conserving, Zval =  6.0
     Generated using FHI98PP, converted with fhi2upf.x v.5.0.1
     Using radial grid of  541 points,  3 beta functions with: 
                l(1) =   0
                l(2) =   2
                l(3) =   3

     PseudoPot. # 2 for S  read from file:
     ./S.pw-mt_fhi.UPF
     MD5 check sum: 498597b413bac406373b42162ed9f1a5
     Pseudo is Norm-conserving, Zval =  6.0
     Generated using FHI98PP, converted with fhi2upf.x v.5.0.1
     Using radial grid of  501 points,  3 beta functions with: 
                l(1) =   0
                l(2) =   1
                l(3) =   3

     atomic species   valence    mass     pseudopotential
        Mo             6.00    95.95000     Mo( 1.00)
        S              6.00    32.06500     S ( 1.00)

     No symmetry found



   Cartesian axes

     site n.     atom                  positions (alat units)
         1           Mo  tau(   1) = (   0.1664053   0.0953618   1.1999835  )
         2           S   tau(   2) = (   0.0000580   0.1914123   1.3659501  )
         3           S   tau(   3) = (   0.0000580   0.1914123   1.0340168  )
         4           Mo  tau(   4) = (  -0.0000726   0.3835341   1.1999835  )
         5           S   tau(   5) = (  -0.1665330   0.4795004   1.3660585  )
         6           S   tau(   6) = (  -0.1665330   0.4795004   1.0339084  )
         7           Mo  tau(   7) = (  -0.1666408   0.6715665   1.1999835  )
         8           S   tau(   8) = (  -0.3330759   0.7676579   1.3659438  )
         9           S   tau(   9) = (  -0.3330759   0.7676579   1.0340231  )
        10           Mo  tau(  10) = (   0.4991331   0.0951273   1.1999835  )
        11           S   tau(  11) = (   0.3328814   0.1912597   1.3660660  )
        12           S   tau(  12) = (   0.3328814   0.1912597   1.0339009  )
        13           Mo  tau(  13) = (   0.3326551   0.3832979   1.1999835  )
        14           S   tau(  14) = (   0.1662905   0.4793486   1.0337937  )
        15           Mo  tau(  15) = (   0.1660867   0.6713305   1.1999835  )
        16           S   tau(  16) = (  -0.0002528   0.7675063   1.3660585  )
        17           S   tau(  17) = (  -0.0002528   0.7675063   1.0339084  )
        18           Mo  tau(  18) = (   0.8319367   0.0950376   1.1999835  )
        19           S   tau(  19) = (   0.6656700   0.1910317   1.3659566  )
        20           S   tau(  20) = (   0.6656700   0.1910317   1.0340103  )
        21           Mo  tau(  21) = (   0.6654571   0.3832090   1.1999835  )
        22           S   tau(  22) = (   0.4990782   0.4791210   1.3660660  )
        23           S   tau(  23) = (   0.4990782   0.4791211   1.0339009  )
        24           Mo  tau(  24) = (   0.4988902   0.6712425   1.1999835  )
        25           S   tau(  25) = (   0.3325343   0.7672783   1.3659501  )
        26           S   tau(  26) = (   0.3325344   0.7672783   1.0340168  )

     number of k points=    52
                       cart. coord. in units 2pi/alat
        k(    1) = (   0.0000000   0.0000000   0.0000000), wk =   0.0200000
        k(    2) = (  -0.0000048   0.1156829   0.0000000), wk =   0.0400000
        k(    3) = (  -0.0000096   0.2313658   0.0000000), wk =   0.0400000
        k(    4) = (  -0.0000144   0.3470488   0.0000000), wk =   0.0400000
        k(    5) = (  -0.0000192   0.4627317   0.0000000), wk =   0.0400000
        k(    6) = (   0.0000240  -0.5784146   0.0000000), wk =   0.0200000
        k(    7) = (   0.1001819   0.1735202   0.0000000), wk =   0.0400000
        k(    8) = (   0.1001771   0.2892031   0.0000000), wk =   0.0400000
        k(    9) = (   0.1001723   0.4048861   0.0000000), wk =   0.0400000
        k(   10) = (   0.1001675   0.5205690   0.0000000), wk =   0.0400000
        k(   11) = (   0.1002108  -0.5205773   0.0000000), wk =   0.0400000
        k(   12) = (   0.1002060  -0.4048944   0.0000000), wk =   0.0400000
        k(   13) = (   0.1002012  -0.2892115   0.0000000), wk =   0.0400000
        k(   14) = (   0.1001964  -0.1735285   0.0000000), wk =   0.0400000
        k(   15) = (   0.1001916  -0.0578456   0.0000000), wk =   0.0400000
        k(   16) = (   0.2003639   0.3470404   0.0000000), wk =   0.0400000
        k(   17) = (   0.2003591   0.4627233   0.0000000), wk =   0.0400000
        k(   18) = (   0.2003543   0.5784063   0.0000000), wk =   0.0400000
        k(   19) = (   0.2003975  -0.4627400   0.0000000), wk =   0.0400000
        k(   20) = (   0.2003927  -0.3470571   0.0000000), wk =   0.0400000
        k(   21) = (   0.2003879  -0.2313742   0.0000000), wk =   0.0400000
        k(   22) = (   0.2003831  -0.1156912   0.0000000), wk =   0.0400000
        k(   23) = (   0.3005458   0.5205606   0.0000000), wk =   0.0400000
        k(   24) = (   0.3005410   0.6362436   0.0000000), wk =   0.0400000
        k(   25) = (   0.3005843  -0.4049027   0.0000000), wk =   0.0400000
        k(   26) = (   0.3005795  -0.2892198   0.0000000), wk =   0.0400000
        k(   27) = (   0.3005747  -0.1735369   0.0000000), wk =   0.0400000
        k(   28) = (   0.4007278   0.6940809   0.0000000), wk =   0.0400000
        k(   29) = (   0.4007710  -0.3470654   0.0000000), wk =   0.0400000
        k(   30) = (   0.4007662  -0.2313825   0.0000000), wk =   0.0400000
        k(   31) = (  -0.5009097  -0.8676011   0.0000000), wk =   0.0200000
        k(   32) = (  -0.1001868  -0.0578373   0.0000000), wk =   0.0400000
        k(   33) = (  -0.2003735  -0.1156746   0.0000000), wk =   0.0400000
        k(   34) = (  -0.3005603  -0.1735119   0.0000000), wk =   0.0400000
        k(   35) = (  -0.4007470  -0.2313492   0.0000000), wk =   0.0400000
        k(   36) = (   0.5009338   0.2891865   0.0000000), wk =   0.0200000
        k(   37) = (  -0.2003687  -0.2313575   0.0000000), wk =   0.0400000
        k(   38) = (  -0.3005555  -0.2891948   0.0000000), wk =   0.0400000
        k(   39) = (  -0.4007422  -0.3470321   0.0000000), wk =   0.0400000
        k(   40) = (   0.5009386   0.1735036   0.0000000), wk =   0.0400000
        k(   41) = (   0.4007518   0.1156663   0.0000000), wk =   0.0400000
        k(   42) = (   0.3005651   0.0578290   0.0000000), wk =   0.0400000
        k(   43) = (   0.2003783  -0.0000083   0.0000000), wk =   0.0400000
        k(   44) = (  -0.3005506  -0.4048777   0.0000000), wk =   0.0400000
        k(   45) = (  -0.4007374  -0.4627150   0.0000000), wk =   0.0400000
        k(   46) = (   0.5009434   0.0578207   0.0000000), wk =   0.0400000
        k(   47) = (   0.4007566  -0.0000166   0.0000000), wk =   0.0400000
        k(   48) = (   0.3005699  -0.0578539   0.0000000), wk =   0.0400000
        k(   49) = (  -0.4007326  -0.5783979   0.0000000), wk =   0.0400000
        k(   50) = (   0.5009482  -0.0578623   0.0000000), wk =   0.0400000
        k(   51) = (   0.4007614  -0.1156996   0.0000000), wk =   0.0400000
        k(   52) = (   0.5009530  -0.1735452   0.0000000), wk =   0.0400000

     Dense  grid:  2262485 G-vectors     FFT dimensions: ( 144, 144, 270)

     Smooth grid:   572393 G-vectors     FFT dimensions: (  90,  90, 180)

     Estimated max dynamical RAM per process >     542.17 MB

     Estimated total dynamical RAM >       8.47 GB

     Initial potential from superposition of free atoms

     starting charge  155.98484, renormalised to  156.00000

     negative rho (up, down):  1.491E-02 0.000E+00
     Starting wfcs are  416 randomized atomic wfcs

     total cpu time spent up to now is      924.5 secs

     Self-consistent Calculation

     iteration #  1     ecut=    60.00 Ry     beta= 0.70
     Davidson diagonalization with overlap
     ethr =  1.00E-02,  avg # of iterations =  2.0

     negative rho (up, down):  4.003E-03 0.000E+00

     total cpu time spent up to now is     1368.4 secs

     total energy              =    -489.78839874 Ry
     Harris-Foulkes estimate   =    -499.05375144 Ry
     estimated scf accuracy    <      11.24110802 Ry

     iteration #  2     ecut=    60.00 Ry     beta= 0.70
     Davidson diagonalization with overlap
     ethr =  7.21E-03,  avg # of iterations = 10.1

     total cpu time spent up to now is     2206.2 secs

     total energy              =    -472.89183063 Ry
     Harris-Foulkes estimate   =    -515.97774711 Ry
     estimated scf accuracy    <     196.97036925 Ry

     iteration #  3     ecut=    60.00 Ry     beta= 0.70
     Davidson diagonalization with overlap
     ethr =  7.21E-03,  avg # of iterations =  5.1

     total cpu time spent up to now is     2960.1 secs

     total energy              =    -496.80806740 Ry
     Harris-Foulkes estimate   =    -498.09445654 Ry
     estimated scf accuracy    <       3.44538550 Ry

     iteration #  4     ecut=    60.00 Ry     beta= 0.70
     Davidson diagonalization with overlap
     ethr =  2.21E-03,  avg # of iterations =  5.9

     total cpu time spent up to now is     3443.2 secs

     total energy              =    -497.26794054 Ry
     Harris-Foulkes estimate   =    -497.48768999 Ry
     estimated scf accuracy    <       0.71605935 Ry

     iteration #  5     ecut=    60.00 Ry     beta= 0.70
     Davidson diagonalization with overlap
     ethr =  4.59E-04,  avg # of iterations =  5.4

     total cpu time spent up to now is     3872.5 secs

     total energy              =    -497.29618993 Ry
     Harris-Foulkes estimate   =    -497.46233283 Ry
     estimated scf accuracy    <       0.80640185 Ry

     iteration #  6     ecut=    60.00 Ry     beta= 0.70
     Davidson diagonalization with overlap
     ethr =  4.59E-04,  avg # of iterations =  1.2

     total cpu time spent up to now is     4166.2 secs

     total energy              =    -497.31307220 Ry
     Harris-Foulkes estimate   =    -497.35066985 Ry
     estimated scf accuracy    <       0.20979910 Ry

     iteration #  7     ecut=    60.00 Ry     beta= 0.70
     Davidson diagonalization with overlap
     ethr =  1.34E-04,  avg # of iterations =  3.3

     total cpu time spent up to now is     4482.7 secs

     total energy              =    -497.27723852 Ry
     Harris-Foulkes estimate   =    -497.33209483 Ry
     estimated scf accuracy    <       0.17066902 Ry

     iteration #  8     ecut=    60.00 Ry     beta= 0.70
     Davidson diagonalization with overlap
     ethr =  1.09E-04,  avg # of iterations =  1.3

     total cpu time spent up to now is     4778.9 secs

     total energy              =    -497.27033129 Ry
     Harris-Foulkes estimate   =    -497.28644106 Ry
     estimated scf accuracy    <       0.05784426 Ry

     iteration #  9     ecut=    60.00 Ry     beta= 0.70
     Davidson diagonalization with overlap
     ethr =  3.71E-05,  avg # of iterations =  1.5

     total cpu time spent up to now is     5075.3 secs

     total energy              =    -497.26784820 Ry
     Harris-Foulkes estimate   =    -497.27260655 Ry
     estimated scf accuracy    <       0.02603876 Ry

     iteration # 10     ecut=    60.00 Ry     beta= 0.70
     Davidson diagonalization with overlap
     ethr =  1.67E-05,  avg # of iterations =  5.0

     total cpu time spent up to now is     5397.4 secs

     total energy              =    -497.26215389 Ry
     Harris-Foulkes estimate   =    -497.26895647 Ry
     estimated scf accuracy    <       0.01615714 Ry

     iteration # 11     ecut=    60.00 Ry     beta= 0.70
     Davidson diagonalization with overlap
     c_bands:  1 eigenvalues not converged
     ethr =  1.04E-05,  avg # of iterations =  6.1

     total cpu time spent up to now is     5851.6 secs

     total energy              =    -497.26452313 Ry
     Harris-Foulkes estimate   =    -497.26507025 Ry
     estimated scf accuracy    <       0.00190023 Ry

     iteration # 12     ecut=    60.00 Ry     beta= 0.70
     Davidson diagonalization with overlap
     ethr =  1.22E-06,  avg # of iterations =  6.2

     total cpu time spent up to now is     6257.2 secs

     total energy              =    -497.26473451 Ry
     Harris-Foulkes estimate   =    -497.26501775 Ry
     estimated scf accuracy    <       0.00127433 Ry

     iteration # 13     ecut=    60.00 Ry     beta= 0.70
     Davidson diagonalization with overlap
     ethr =  8.17E-07,  avg # of iterations =  2.0

     total cpu time spent up to now is     6558.9 secs

     total energy              =    -497.26488752 Ry
     Harris-Foulkes estimate   =    -497.26492479 Ry
     estimated scf accuracy    <       0.00011439 Ry

     iteration # 14     ecut=    60.00 Ry     beta= 0.70
     Davidson diagonalization with overlap
     ethr =  7.33E-08,  avg # of iterations =  3.0

     total cpu time spent up to now is     6959.0 secs

     total energy              =    -497.26492301 Ry
     Harris-Foulkes estimate   =    -497.26492177 Ry
     estimated scf accuracy    <       0.00000551 Ry

     iteration # 15     ecut=    60.00 Ry     beta= 0.70
     Davidson diagonalization with overlap
     ethr =  3.53E-09,  avg # of iterations =  3.8

     total cpu time spent up to now is     7431.2 secs

     total energy              =    -497.26492318 Ry
     Harris-Foulkes estimate   =    -497.26492723 Ry
     estimated scf accuracy    <       0.00001781 Ry

     iteration # 16     ecut=    60.00 Ry     beta= 0.70
     Davidson diagonalization with overlap
     ethr =  3.53E-09,  avg # of iterations =  3.0

     total cpu time spent up to now is     7797.6 secs

     total energy              =    -497.26492532 Ry
     Harris-Foulkes estimate   =    -497.26492612 Ry
     estimated scf accuracy    <       0.00000416 Ry

     iteration # 17     ecut=    60.00 Ry     beta= 0.70
     Davidson diagonalization with overlap
     ethr =  2.67E-09,  avg # of iterations =  2.3

     total cpu time spent up to now is     8104.0 secs

     total energy              =    -497.26492558 Ry
     Harris-Foulkes estimate   =    -497.26492628 Ry
     estimated scf accuracy    <       0.00000298 Ry

     iteration # 18     ecut=    60.00 Ry     beta= 0.70
     Davidson diagonalization with overlap
     ethr =  1.91E-09,  avg # of iterations =  2.0

     total cpu time spent up to now is     8391.2 secs

     total energy              =    -497.26492603 Ry
     Harris-Foulkes estimate   =    -497.26492616 Ry
     estimated scf accuracy    <       0.00000075 Ry

     iteration # 19     ecut=    60.00 Ry     beta= 0.70
     Davidson diagonalization with overlap
     ethr =  4.79E-10,  avg # of iterations =  2.0

     negative rho (up, down):  5.826E-08 0.000E+00

     total cpu time spent up to now is     8693.3 secs

     total energy              =    -497.26492612 Ry
     Harris-Foulkes estimate   =    -497.26492616 Ry
     estimated scf accuracy    <       0.00000011 Ry

     iteration # 20     ecut=    60.00 Ry     beta= 0.70
     Davidson diagonalization with overlap
     ethr =  7.22E-11,  avg # of iterations =  2.2

     total cpu time spent up to now is     9044.1 secs

     total energy              =    -497.26492613 Ry
     Harris-Foulkes estimate   =    -497.26492616 Ry
     estimated scf accuracy    <       0.00000010 Ry

     iteration # 21     ecut=    60.00 Ry     beta= 0.70
     Davidson diagonalization with overlap
     ethr =  6.37E-11,  avg # of iterations =  2.4

     total cpu time spent up to now is     9387.0 secs

     total energy              =    -497.26492613 Ry
     Harris-Foulkes estimate   =    -497.26492617 Ry
     estimated scf accuracy    <       0.00000014 Ry

     iteration # 22     ecut=    60.00 Ry     beta= 0.70
     Davidson diagonalization with overlap
     ethr =  6.37E-11,  avg # of iterations =  2.0

     total cpu time spent up to now is     9694.0 secs

     total energy              =    -497.26492615 Ry
     Harris-Foulkes estimate   =    -497.26492615 Ry
     estimated scf accuracy    <       0.00000001 Ry

     iteration # 23     ecut=    60.00 Ry     beta= 0.70
     Davidson diagonalization with overlap
     ethr =  6.91E-12,  avg # of iterations =  2.9

     total cpu time spent up to now is    10042.9 secs

     End of self-consistent calculation

          k = 0.0000 0.0000 0.0000 ( 71589 PWs)   bands (ev):

   -15.6509 -14.4618 -14.3351 -14.3340 -14.3267 -14.3133 -14.3119 -13.9368
   -13.6882 -13.6880 -13.6803 -13.6674 -13.6672 -13.3968 -13.3919 -13.1542
   -13.1124  -7.1321  -6.9188  -6.9186  -6.8680  -6.8166  -6.8153  -6.6091
    -6.6089  -6.5715  -6.0336  -6.0328  -5.8642  -5.7614  -5.7609  -5.7231
    -5.7230  -5.6718  -5.4671  -5.4659  -5.3841  -5.3187  -5.3183  -5.1217
    -5.0094  -5.0082  -4.9571  -4.4336  -4.3385  -4.3345  -4.1755  -4.1415
    -4.1404  -4.1157  -3.9039  -3.9032  -3.4776  -3.4712  -3.4535  -3.4533
    -3.2163  -3.0604  -3.0000  -3.0000  -2.8945  -2.8934  -2.6392  -2.6391
    -2.5911  -2.5813  -2.5794  -2.5647  -2.4231  -2.3688  -2.3590  -2.3583
    -2.2222  -2.2218  -1.4969  -1.2923  -1.2916  -1.0991  -0.0184  -0.0164
     0.8456   0.8486   1.2565   1.2575   1.2624   1.2629   1.3016   1.3044
     1.3336   1.3526   1.3552   1.5101   1.6323   1.6349   1.9327   1.9334
     2.0721   2.0732   2.3574   2.4959

          k =-0.0000 0.1157 0.0000 ( 71639 PWs)   bands (ev):

   -15.6348 -14.5205 -14.4546 -14.4205 -14.3307 -14.2120 -14.1570 -13.9059
   -13.7847 -13.7322 -13.6717 -13.6143 -13.5835 -13.4063 -13.3967 -13.1636
   -13.1223  -7.1174  -6.9804  -6.9107  -6.9045  -6.8214  -6.7602  -6.6478
    -6.5967  -6.4922  -6.1771  -6.1655  -5.9517  -5.8143  -5.7763  -5.6136
    -5.5964  -5.5271  -5.4318  -5.4280  -5.3635  -5.3170  -5.3133  -5.1260
    -5.0050  -4.9733  -4.9105  -4.4699  -4.3726  -4.3291  -4.2477  -4.1950
    -4.1714  -4.0542  -3.9473  -3.8833  -3.5314  -3.4969  -3.4773  -3.3987
    -3.2096  -3.0705  -2.9786  -2.9692  -2.8526  -2.8511  -2.7373  -2.7106
    -2.6973  -2.6500  -2.6208  -2.4970  -2.3680  -2.3263  -2.3018  -2.2853
    -2.1839  -2.1633  -1.4975  -1.3281  -1.3270  -1.1142  -0.0036  -0.0006
     0.8859   0.8885   1.1413   1.1643   1.2329   1.2564   1.3185   1.3217
     1.3887   1.4363   1.4370   1.5647   1.6377   1.6608   1.9240   1.9570
     2.0442   2.0725   2.2530   2.3950

          k =-0.0000 0.2314 0.0000 ( 71595 PWs)   bands (ev):

   -15.5868 -14.7145 -14.4986 -14.4498 -14.3483 -14.0909 -14.0128 -13.9048
   -13.8163 -13.7750 -13.6682 -13.5453 -13.4994 -13.4489 -13.3950 -13.1901
   -13.1508  -7.1303  -7.0613  -6.9155  -6.8977  -6.7930  -6.7498  -6.6140
    -6.5915  -6.4564  -6.3399  -6.3280  -6.0926  -5.8904  -5.8440  -5.4866
    -5.4189  -5.4030  -5.3616  -5.3563  -5.3004  -5.2920  -5.2165  -5.1179
    -4.9911  -4.8599  -4.7597  -4.5211  -4.4537  -4.3803  -4.3732  -4.2663
    -4.2050  -4.0673  -4.0385  -3.8063  -3.6916  -3.5058  -3.4978  -3.3122
    -3.2145  -3.0820  -2.9603  -2.9361  -2.8919  -2.8792  -2.8652  -2.8085
    -2.7839  -2.7312  -2.5778  -2.4444  -2.2904  -2.2263  -2.1857  -2.1840
    -2.0826  -2.0534  -1.5110  -1.4199  -1.4071  -1.1550   0.0312   0.0354
     0.9741   0.9774   1.0365   1.0920   1.1961   1.2402   1.3026   1.3546
     1.4624   1.5523   1.5733   1.6490   1.6846   1.7235   1.8447   2.0175
     2.0245   2.0655   2.0851   2.2271

          k =-0.0000 0.3470 0.0000 ( 71562 PWs)   bands (ev):

   -15.5089 -14.9038 -14.5563 -14.4591 -14.3343 -14.0034 -13.9643 -13.8914
   -13.8064 -13.7532 -13.6596 -13.5174 -13.4716 -13.4378 -13.3833 -13.2291
   -13.1960  -7.2491  -7.0070  -6.9350  -6.8831  -6.7329  -6.7318  -6.6296
    -6.6024  -6.5515  -6.3989  -6.3548  -6.2199  -5.9579  -5.9313  -5.4508
    -5.3572  -5.3150  -5.3026  -5.2924  -5.2403  -5.2369  -5.0768  -4.9759
    -4.9592  -4.7345  -4.5700  -4.5284  -4.5120  -4.4491  -4.4455  -4.3726
    -4.2591  -4.1883  -4.0463  -3.8687  -3.6872  -3.5778  -3.4634  -3.2226
    -3.2125  -3.1312  -3.1273  -3.0749  -3.0594  -2.9985  -2.9555  -2.8065
    -2.7382  -2.6297  -2.4936  -2.3762  -2.2041  -2.1348  -2.1139  -2.0537
    -1.9505  -1.9368  -1.5821  -1.5346  -1.4636  -1.2104   0.0664   0.0712
     0.9519   0.9733   1.0743   1.1578   1.2099   1.2460   1.3221   1.3998
     1.5263   1.5983   1.6530   1.6977   1.7681   1.7896   1.8013   1.8904
     1.9561   2.0533   2.1278   2.1856

          k =-0.0000 0.4627 0.0000 ( 71496 PWs)   bands (ev):

   -15.4064 -15.0756 -14.5917 -14.4749 -14.2916 -14.0920 -13.8395 -13.8239
   -13.7960 -13.7223 -13.6571 -13.6083 -13.4001 -13.3962 -13.3559 -13.2740
   -13.2544  -7.3326  -6.9624  -6.9428  -6.8319  -6.7694  -6.7656  -6.6209
    -6.5744  -6.5712  -6.4243  -6.3975  -6.2850  -6.0156  -6.0058  -5.4675
    -5.3176  -5.2871  -5.2525  -5.2466  -5.1982  -5.1719  -4.9253  -4.9117
    -4.8299  -4.6553  -4.6372  -4.5816  -4.5477  -4.4914  -4.4644  -4.3566
    -4.2523  -4.1501  -3.9944  -3.9767  -3.6534  -3.5625  -3.4200  -3.3696
    -3.3633  -3.2260  -3.1949  -3.1739  -3.1253  -3.0800  -3.0088  -2.7593
    -2.6930  -2.5855  -2.4249  -2.2957  -2.1473  -2.0710  -2.0602  -1.9416
    -1.8651  -1.7786  -1.6804  -1.6430  -1.5132  -1.2602   0.0891   0.0948
     0.9060   0.9425   1.1443   1.2394   1.2568   1.2767   1.3686   1.4357
     1.5161   1.5738   1.6320   1.7097   1.7568   1.8101   1.8511   1.8777
     1.9180   2.0507   2.1829   2.1950

          k = 0.0000-0.5784 0.0000 ( 71532 PWs)   bands (ev):

   -15.3245 -15.1811 -14.6036 -14.4815 -14.2589 -14.1395 -13.8327 -13.7496
   -13.7185 -13.7152 -13.7113 -13.6710 -13.3821 -13.3318 -13.3253 -13.3197
   -13.3079  -7.3621  -6.9428  -6.9408  -6.8239  -6.8033  -6.7559  -6.6645
    -6.5236  -6.4874  -6.4701  -6.4673  -6.2902  -6.0538  -6.0234  -5.4766
    -5.3042  -5.2756  -5.2418  -5.2378  -5.1779  -5.1371  -4.8815  -4.8384
    -4.7376  -4.6667  -4.6370  -4.6232  -4.5686  -4.5433  -4.5287  -4.4240
    -4.1939  -4.0627  -4.0141  -3.7623  -3.6643  -3.6614  -3.5218  -3.4725
    -3.3450  -3.3082  -3.2485  -3.1891  -3.0928  -3.0816  -3.0488  -2.7422
    -2.6766  -2.5761  -2.3991  -2.2600  -2.1298  -2.0566  -2.0281  -1.8774
    -1.8139  -1.7681  -1.7049  -1.6315  -1.5909  -1.2798   0.0967   0.1029
     0.8904   0.9316   1.1897   1.2482   1.2725   1.3121   1.3931   1.4487
     1.4575   1.5940   1.6170   1.7109   1.7156   1.7669   1.8522   1.9707
     1.9784   2.0553   2.1108   2.1456

          k = 0.1002 0.1735 0.0000 ( 71607 PWs)   bands (ev):

   -15.6027 -14.6404 -14.5534 -14.4198 -14.2825 -14.1901 -14.0235 -13.8687
   -13.8552 -13.7619 -13.6507 -13.5858 -13.5120 -13.4354 -13.3954 -13.1817
   -13.1412  -7.0946  -7.0668  -6.9603  -6.8567  -6.8112  -6.7265  -6.6615
    -6.5791  -6.4452  -6.3062  -6.2988  -6.0538  -5.8968  -5.7664  -5.5875
    -5.4424  -5.4184  -5.3684  -5.3386  -5.3200  -5.3024  -5.2795  -5.1282
    -4.9895  -4.9137  -4.8041  -4.5089  -4.4281  -4.3703  -4.3304  -4.2707
    -4.1592  -4.0766  -3.9785  -3.8576  -3.6371  -3.5111  -3.4937  -3.3384
    -3.2076  -3.0872  -2.9679  -2.8999  -2.8885  -2.8630  -2.8195  -2.7971
    -2.7861  -2.6417  -2.6054  -2.5300  -2.2981  -2.2522  -2.2317  -2.1884
    -2.1160  -2.0871  -1.5033  -1.4013  -1.3755  -1.1419   0.0146   0.0316
     0.9517   0.9544   1.0613   1.1083   1.1686   1.2722   1.3091   1.3410
     1.4411   1.5122   1.5497   1.6319   1.6560   1.7063   1.8762   1.9972
     2.0311   2.0644   2.1268   2.2754

          k = 0.1002 0.2892 0.0000 ( 71540 PWs)   bands (ev):

   -15.5397 -14.8111 -14.6401 -14.3906 -14.2858 -14.0937 -13.9544 -13.8954
   -13.8494 -13.7363 -13.6391 -13.5363 -13.4911 -13.4387 -13.3888 -13.2157
   -13.1765  -7.1868  -7.0662  -6.9680  -6.8223  -6.7590  -6.7212  -6.6625
    -6.5837  -6.5039  -6.4118  -6.3373  -6.1769  -5.9686  -5.8216  -5.5289
    -5.4250  -5.3734  -5.3114  -5.2678  -5.2212  -5.1948  -5.1294  -5.0702
    -4.9559  -4.7902  -4.6595  -4.5149  -4.4995  -4.4665  -4.4299  -4.2994
    -4.2022  -4.1592  -4.0146  -3.8089  -3.7637  -3.5447  -3.5069  -3.2567
    -3.2041  -3.1378  -3.1004  -3.0488  -2.9703  -2.9314  -2.8386  -2.8075
    -2.7216  -2.6810  -2.5310  -2.4836  -2.2179  -2.1648  -2.1211  -2.0835
    -2.0053  -1.9860  -1.5449  -1.5082  -1.4358  -1.1890   0.0341   0.0812
     0.9766   1.0089   1.0445   1.0987   1.1504   1.2923   1.3244   1.3747
     1.4978   1.5921   1.6395   1.6950   1.7449   1.7546   1.7852   1.9261
     2.0204   2.0618   2.0933   2.1704

          k = 0.1002 0.4049 0.0000 ( 71507 PWs)   bands (ev):

   -15.4486 -14.9876 -14.6924 -14.3633 -14.2913 -14.0501 -13.9664 -13.8678
   -13.7830 -13.6910 -13.6467 -13.5677 -13.4708 -13.3863 -13.3664 -13.2630
   -13.2225  -7.2858  -7.0570  -6.9092  -6.8420  -6.7771  -6.6941  -6.6383
    -6.6041  -6.5549  -6.4489  -6.3443  -6.2697  -6.0225  -5.9168  -5.4799
    -5.4163  -5.3638  -5.2810  -5.2200  -5.1542  -5.1102  -5.0180  -4.9152
    -4.8600  -4.7036  -4.6187  -4.6014  -4.5261  -4.4900  -4.4153  -4.3378
    -4.2502  -4.1579  -4.0219  -3.9382  -3.6753  -3.5948  -3.4856  -3.3761
    -3.2339  -3.2053  -3.1597  -3.1239  -3.1054  -3.0578  -2.9481  -2.7599
    -2.7132  -2.6065  -2.4391  -2.3951  -2.1479  -2.1041  -2.0233  -1.9828
    -1.9015  -1.8525  -1.6520  -1.5973  -1.4820  -1.2400   0.0468   0.1245
     0.9274   0.9795   1.1114   1.1456   1.2348   1.3225   1.3504   1.4177
     1.5291   1.5920   1.6279   1.6957   1.7687   1.7976   1.8524   1.8831
     1.8933   2.0471   2.1392   2.1938

          k = 0.1002 0.5206 0.0000 ( 71533 PWs)   bands (ev):

   -15.3421 -15.1392 -14.7181 -14.3591 -14.2610 -14.1229 -13.8951 -13.8240
   -13.7153 -13.6959 -13.6702 -13.6292 -13.4058 -13.3609 -13.3282 -13.3162
   -13.2708  -7.3412  -7.0239  -6.9491  -6.8151  -6.7651  -6.7396  -6.6390
    -6.5798  -6.5163  -6.4678  -6.3905  -6.2932  -6.0582  -5.9918  -5.4821
    -5.3809  -5.3585  -5.2646  -5.1859  -5.1440  -5.0520  -4.9242  -4.8015
    -4.7855  -4.6841  -4.6538  -4.5948  -4.5751  -4.5424  -4.4773  -4.3475
    -4.2430  -4.0875  -3.9984  -3.8574  -3.6884  -3.5965  -3.4970  -3.4249
    -3.3698  -3.3063  -3.2665  -3.1955  -3.1537  -3.0501  -2.9906  -2.7490
    -2.6901  -2.5704  -2.3901  -2.3256  -2.1152  -2.0650  -1.9640  -1.9084
    -1.8277  -1.7570  -1.7002  -1.6650  -1.5543  -1.2723   0.0524   0.1482
     0.8977   0.9656   1.1640   1.1968   1.2904   1.3324   1.3847   1.4401
     1.4668   1.5758   1.6258   1.6903   1.7159   1.7785   1.8682   1.9224
     1.9733   2.0652   2.0949   2.1521

          k = 0.1002-0.5206 0.0000 ( 71535 PWs)   bands (ev):

   -15.3420 -15.1393 -14.7181 -14.3592 -14.2610 -14.1228 -13.8951 -13.8235
   -13.7153 -13.6968 -13.6706 -13.6283 -13.4059 -13.3609 -13.3289 -13.3150
   -13.2712  -7.3412  -7.0229  -6.9502  -6.8153  -6.7644  -6.7398  -6.6392
    -6.5798  -6.5163  -6.4681  -6.3902  -6.2931  -6.0589  -5.9913  -5.4821
    -5.3812  -5.3585  -5.2652  -5.1862  -5.1432  -5.0518  -4.9243  -4.8003
    -4.7860  -4.6817  -4.6558  -4.5955  -4.5752  -4.5421  -4.4756  -4.3494
    -4.2433  -4.0889  -3.9973  -3.8587  -3.6871  -3.5922  -3.4963  -3.4258
    -3.3756  -3.3049  -3.2660  -3.1956  -3.1535  -3.0488  -2.9921  -2.7484
    -2.6901  -2.5711  -2.3897  -2.3256  -2.1154  -2.0650  -1.9636  -1.9074
    -1.8280  -1.7582  -1.6994  -1.6655  -1.5541  -1.2721   0.0522   0.1483
     0.8973   0.9659   1.1647   1.1973   1.2904   1.3319   1.3848   1.4396
     1.4664   1.5759   1.6258   1.6897   1.7159   1.7787   1.8675   1.9230
     1.9731   2.0660   2.0958   2.1515

          k = 0.1002-0.4049 0.0000 ( 71506 PWs)   bands (ev):

   -15.4486 -14.9878 -14.6921 -14.3636 -14.2913 -14.0500 -13.9660 -13.8676
   -13.7835 -13.6912 -13.6469 -13.5673 -13.4710 -13.3862 -13.3663 -13.2628
   -13.2227  -7.2859  -7.0560  -6.9097  -6.8429  -6.7763  -6.6942  -6.6382
    -6.6041  -6.5553  -6.4492  -6.3438  -6.2693  -6.0233  -5.9164  -5.4802
    -5.4171  -5.3638  -5.2823  -5.2205  -5.1521  -5.1098  -5.0180  -4.9147
    -4.8587  -4.7042  -4.6134  -4.6050  -4.5265  -4.4902  -4.4153  -4.3380
    -4.2519  -4.1603  -4.0217  -3.9355  -3.6741  -3.5953  -3.4850  -3.3770
    -3.2326  -3.2062  -3.1592  -3.1232  -3.1046  -3.0598  -2.9502  -2.7584
    -2.7135  -2.6082  -2.4377  -2.3951  -2.1487  -2.1041  -2.0218  -1.9820
    -1.9022  -1.8525  -1.6530  -1.5974  -1.4818  -1.2397   0.0462   0.1249
     0.9258   0.9811   1.1123   1.1470   1.2350   1.3210   1.3496   1.4169
     1.5282   1.5938   1.6274   1.6947   1.7687   1.7972   1.8534   1.8835
     1.8933   2.0464   2.1398   2.1951

          k = 0.1002-0.2892 0.0000 ( 71536 PWs)   bands (ev):

   -15.5397 -14.8114 -14.6397 -14.3907 -14.2864 -14.0930 -13.9541 -13.8958
   -13.8494 -13.7362 -13.6393 -13.5364 -13.4910 -13.4383 -13.3889 -13.2157
   -13.1766  -7.1870  -7.0655  -6.9682  -6.8220  -6.7588  -6.7215  -6.6623
    -6.5846  -6.5047  -6.4118  -6.3366  -6.1763  -5.9692  -5.8216  -5.5301
    -5.4258  -5.3734  -5.3124  -5.2688  -5.2180  -5.1941  -5.1295  -5.0695
    -4.9552  -4.7909  -4.6599  -4.5150  -4.4979  -4.4651  -4.4310  -4.2986
    -4.2042  -4.1599  -4.0158  -3.8079  -3.7626  -3.5452  -3.5075  -3.2561
    -3.2033  -3.1380  -3.1007  -3.0462  -2.9708  -2.9315  -2.8424  -2.8069
    -2.7226  -2.6816  -2.5300  -2.4832  -2.2191  -2.1643  -2.1193  -2.0832
    -2.0055  -1.9863  -1.5448  -1.5094  -1.4352  -1.1887   0.0333   0.0818
     0.9741   1.0121   1.0447   1.1001   1.1513   1.2899   1.3237   1.3733
     1.4976   1.5931   1.6389   1.6963   1.7451   1.7542   1.7857   1.9263
     2.0190   2.0614   2.0944   2.1716

          k = 0.1002-0.1735 0.0000 ( 71609 PWs)   bands (ev):

   -15.6027 -14.6409 -14.5526 -14.4199 -14.2836 -14.1889 -14.0240 -13.8683
   -13.8551 -13.7620 -13.6512 -13.5859 -13.5116 -13.4354 -13.3955 -13.1816
   -13.1413  -7.0945  -7.0669  -6.9602  -6.8563  -6.8112  -6.7260  -6.6620
    -6.5799  -6.4458  -6.3062  -6.2982  -6.0530  -5.8973  -5.7666  -5.5888
    -5.4442  -5.4183  -5.3667  -5.3382  -5.3191  -5.3029  -5.2796  -5.1271
    -4.9893  -4.9147  -4.8032  -4.5085  -4.4305  -4.3652  -4.3314  -4.2709
    -4.1591  -4.0793  -3.9787  -3.8581  -3.6358  -3.5114  -3.4948  -3.3377
    -3.2063  -3.0864  -2.9685  -2.9009  -2.8884  -2.8617  -2.8208  -2.7964
    -2.7868  -2.6424  -2.6054  -2.5305  -2.2997  -2.2503  -2.2316  -2.1879
    -2.1158  -2.0874  -1.5033  -1.4022  -1.3749  -1.1418   0.0140   0.0320
     0.9524   0.9548   1.0595   1.1121   1.1683   1.2710   1.3075   1.3392
     1.4408   1.5137   1.5502   1.6335   1.6558   1.7047   1.8777   1.9968
     2.0304   2.0641   2.1273   2.2766

          k = 0.1002-0.0578 0.0000 ( 71637 PWs)   bands (ev):

   -15.6348 -14.5205 -14.4547 -14.4205 -14.3303 -14.2121 -14.1571 -13.9058
   -13.7843 -13.7324 -13.6723 -13.6144 -13.5830 -13.4063 -13.3968 -13.1636
   -13.1223  -7.1173  -6.9806  -6.9106  -6.9045  -6.8207  -6.7606  -6.6485
    -6.5963  -6.4925  -6.1768  -6.1658  -5.9509  -5.8146  -5.7770  -5.6134
    -5.5964  -5.5279  -5.4307  -5.4286  -5.3631  -5.3168  -5.3137  -5.1255
    -5.0058  -4.9726  -4.9104  -4.4698  -4.3750  -4.3255  -4.2489  -4.1935
    -4.1715  -4.0563  -3.9468  -3.8837  -3.5314  -3.4973  -3.4771  -3.3982
    -3.2089  -3.0701  -2.9789  -2.9700  -2.8523  -2.8515  -2.7374  -2.7107
    -2.6964  -2.6492  -2.6207  -2.4994  -2.3682  -2.3257  -2.3013  -2.2852
    -2.1834  -2.1637  -1.4975  -1.3285  -1.3267  -1.1141  -0.0031  -0.0012
     0.8854   0.8894   1.1424   1.1636   1.2319   1.2586   1.3181   1.3187
     1.3880   1.4374   1.4380   1.5649   1.6396   1.6587   1.9249   1.9565
     2.0443   2.0720   2.2533   2.3954

          k = 0.2004 0.3470 0.0000 ( 71488 PWs)   bands (ev):

   -15.4631 -14.9200 -14.7775 -14.3389 -14.1848 -14.0977 -14.0195 -13.9023
   -13.7772 -13.6818 -13.5903 -13.5688 -13.5250 -13.3751 -13.3746 -13.2600
   -13.2101  -7.2379  -7.1276  -6.9129  -6.8353  -6.7497  -6.6883  -6.6617
    -6.5925  -6.5432  -6.4689  -6.3285  -6.2579  -6.0278  -5.8245  -5.5815
    -5.4486  -5.3826  -5.2947  -5.1993  -5.0974  -5.0874  -5.0370  -4.9381
    -4.8575  -4.7054  -4.6725  -4.6176  -4.5397  -4.5127  -4.4086  -4.3091
    -4.1759  -4.1496  -4.0136  -3.8674  -3.7808  -3.5951  -3.5242  -3.3813
    -3.2482  -3.2132  -3.1595  -3.1162  -3.0922  -2.9495  -2.8746  -2.7667
    -2.6794  -2.6089  -2.5896  -2.4002  -2.1428  -2.0778  -2.0421  -1.9717
    -1.9214  -1.8949  -1.6421  -1.5813  -1.4661  -1.2302   0.0298   0.1369
     0.9548   1.0318   1.0432   1.1063   1.2231   1.3435   1.3710   1.3942
     1.5156   1.6081   1.6182   1.7156   1.7428   1.7675   1.8504   1.8749
     1.9239   2.0655   2.1120   2.1885

          k = 0.2004 0.4627 0.0000 ( 71532 PWs)   bands (ev):

   -15.3619 -15.0586 -14.8467 -14.2815 -14.1774 -14.0909 -14.0077 -13.9161
   -13.7153 -13.6862 -13.6065 -13.5752 -13.4813 -13.3592 -13.3284 -13.3159
   -13.2450  -7.2888  -7.1309  -6.9616  -6.8257  -6.7288  -6.6897  -6.6327
    -6.6037  -6.5464  -6.4683  -6.3327  -6.2974  -6.0644  -5.9053  -5.5827
    -5.4658  -5.3890  -5.2876  -5.1316  -5.0562  -4.9993  -4.9407  -4.8538
    -4.7473  -4.7203  -4.6672  -4.6095  -4.5764  -4.5262  -4.4422  -4.3712
    -4.1801  -4.1005  -3.9280  -3.8848  -3.6997  -3.6582  -3.5915  -3.4655
    -3.3925  -3.2544  -3.2108  -3.1857  -3.0931  -3.0365  -2.9367  -2.7690
    -2.7035  -2.5824  -2.5118  -2.3112  -2.0887  -2.0255  -1.9665  -1.8841
    -1.8460  -1.7839  -1.7348  -1.6432  -1.5226  -1.2606   0.0239   0.1779
     0.9454   1.0108   1.0960   1.1377   1.3090   1.3485   1.3884   1.4255
     1.4770   1.5585   1.5954   1.6860   1.7375   1.7933   1.8168   1.9356
     1.9721   2.0381   2.0737   2.1565

          k = 0.2004 0.5784 0.0000 ( 71524 PWs)   bands (ev):

   -15.2777 -15.1597 -14.8660 -14.2314 -14.2062 -14.1245 -13.9712 -13.8656
   -13.7888 -13.6460 -13.6141 -13.5840 -13.4117 -13.3978 -13.3371 -13.2953
   -13.2719  -7.3107  -7.0909  -7.0466  -6.7626  -6.7436  -6.6846  -6.6472
    -6.5859  -6.5792  -6.4494  -6.3123  -6.3051  -6.0846  -5.9608  -5.5752
    -5.4721  -5.3903  -5.2853  -5.1056  -5.0381  -4.9622  -4.9153  -4.7771
    -4.7592  -4.7268  -4.6649  -4.6200  -4.5890  -4.5158  -4.4847  -4.3108
    -4.2122  -4.0737  -3.9367  -3.8667  -3.8086  -3.5548  -3.5196  -3.4381
    -3.3965  -3.3672  -3.3120  -3.2097  -3.1987  -2.9978  -2.9541  -2.7877
    -2.6949  -2.5709  -2.4818  -2.2760  -2.0721  -1.9987  -1.9372  -1.8687
    -1.8066  -1.7617  -1.7088  -1.6595  -1.5919  -1.2703   0.0213   0.1925
     0.9359   1.0151   1.1405   1.1517   1.3007   1.3598   1.4049   1.4166
     1.4597   1.5318   1.6128   1.6450   1.7194   1.7763   1.8872   1.9437
     1.9717   2.0340   2.0711   2.1104

          k = 0.2004-0.4627 0.0000 ( 71526 PWs)   bands (ev):

   -15.3618 -15.0589 -14.8465 -14.2817 -14.1776 -14.0908 -14.0076 -13.9154
   -13.7158 -13.6872 -13.6054 -13.5753 -13.4815 -13.3594 -13.3286 -13.3151
   -13.2453  -7.2888  -7.1298  -6.9628  -6.8260  -6.7278  -6.6902  -6.6328
    -6.6038  -6.5466  -6.4686  -6.3322  -6.2969  -6.0655  -5.9048  -5.5832
    -5.4662  -5.3889  -5.2882  -5.1315  -5.0553  -5.0016  -4.9385  -4.8527
    -4.7472  -4.7187  -4.6660  -4.6114  -4.5768  -4.5254  -4.4416  -4.3715
    -4.1833  -4.1029  -3.9241  -3.8860  -3.6973  -3.6580  -3.5897  -3.4667
    -3.3931  -3.2539  -3.2114  -3.1847  -3.0951  -3.0355  -2.9400  -2.7682
    -2.7025  -2.5831  -2.5120  -2.3105  -2.0893  -2.0268  -1.9626  -1.8839
    -1.8468  -1.7838  -1.7364  -1.6434  -1.5224  -1.2601   0.0234   0.1781
     0.9437   1.0108   1.0993   1.1389   1.3089   1.3471   1.3884   1.4247
     1.4767   1.5582   1.5949   1.6853   1.7370   1.7936   1.8167   1.9362
     1.9724   2.0382   2.0755   2.1568

          k = 0.2004-0.3471 0.0000 ( 71484 PWs)   bands (ev):

   -15.4630 -14.9205 -14.7770 -14.3390 -14.1859 -14.0966 -14.0192 -13.9023
   -13.7779 -13.6819 -13.5908 -13.5683 -13.5250 -13.3749 -13.3745 -13.2599
   -13.2103  -7.2375  -7.1270  -6.9131  -6.8364  -6.7498  -6.6871  -6.6619
    -6.5934  -6.5437  -6.4688  -6.3280  -6.2571  -6.0287  -5.8245  -5.5824
    -5.4494  -5.3823  -5.2958  -5.1995  -5.0967  -5.0871  -5.0358  -4.9376
    -4.8548  -4.7068  -4.6730  -4.6119  -4.5438  -4.5142  -4.4076  -4.3087
    -4.1771  -4.1523  -4.0140  -3.8632  -3.7810  -3.5958  -3.5234  -3.3840
    -3.2459  -3.2133  -3.1583  -3.1157  -3.0916  -2.9518  -2.8779  -2.7655
    -2.6803  -2.6107  -2.5883  -2.3992  -2.1439  -2.0790  -2.0382  -1.9714
    -1.9219  -1.8953  -1.6433  -1.5816  -1.4659  -1.2296   0.0290   0.1373
     0.9524   1.0302   1.0486   1.1086   1.2232   1.3409   1.3691   1.3936
     1.5162   1.6070   1.6186   1.7160   1.7427   1.7675   1.8507   1.8757
     1.9235   2.0659   2.1124   2.1887

          k = 0.2004-0.2314 0.0000 ( 71540 PWs)   bands (ev):

   -15.5397 -14.8115 -14.6397 -14.3908 -14.2862 -14.0932 -13.9539 -13.8959
   -13.8495 -13.7361 -13.6397 -13.5362 -13.4910 -13.4382 -13.3889 -13.2157
   -13.1766  -7.1860  -7.0663  -6.9682  -6.8221  -6.7593  -6.7217  -6.6617
    -6.5847  -6.5049  -6.4117  -6.3364  -6.1760  -5.9695  -5.8222  -5.5296
    -5.4264  -5.3730  -5.3129  -5.2683  -5.2188  -5.1944  -5.1291  -5.0686
    -4.9555  -4.7903  -4.6597  -4.5138  -4.4966  -4.4658  -4.4332  -4.2982
    -4.2028  -4.1602  -4.0166  -3.8084  -3.7625  -3.5460  -3.5075  -3.2558
    -3.2017  -3.1389  -3.1012  -3.0457  -2.9703  -2.9329  -2.8410  -2.8070
    -2.7224  -2.6815  -2.5313  -2.4834  -2.2194  -2.1633  -2.1198  -2.0834
    -2.0048  -1.9866  -1.5446  -1.5096  -1.4354  -1.1886   0.0333   0.0816
     0.9756   1.0110   1.0452   1.0993   1.1515   1.2912   1.3216   1.3734
     1.4970   1.5925   1.6408   1.6964   1.7455   1.7542   1.7850   1.9259
     2.0192   2.0635   2.0931   2.1710

          k = 0.2004-0.1157 0.0000 ( 71593 PWs)   bands (ev):

   -15.5868 -14.7146 -14.4987 -14.4498 -14.3480 -14.0910 -14.0130 -13.9044
   -13.8161 -13.7751 -13.6688 -13.5454 -13.4989 -13.4489 -13.3950 -13.1901
   -13.1508  -7.1295  -7.0617  -6.9155  -6.8978  -6.7928  -6.7504  -6.6149
    -6.5905  -6.4577  -6.3386  -6.3284  -6.0918  -5.8911  -5.8446  -5.4865
    -5.4195  -5.4050  -5.3614  -5.3551  -5.2994  -5.2923  -5.2167  -5.1161
    -4.9918  -4.8593  -4.7593  -4.5207  -4.4528  -4.3845  -4.3702  -4.2642
    -4.2055  -4.0671  -4.0409  -3.8073  -3.6907  -3.5067  -3.4984  -3.3114
    -3.2123  -3.0824  -2.9608  -2.9360  -2.8919  -2.8789  -2.8654  -2.8092
    -2.7841  -2.7309  -2.5774  -2.4465  -2.2913  -2.2248  -2.1854  -2.1841
    -2.0816  -2.0539  -1.5109  -1.4206  -1.4068  -1.1548   0.0317   0.0347
     0.9765   0.9768   1.0372   1.0900   1.1962   1.2421   1.3002   1.3530
     1.4613   1.5540   1.5737   1.6505   1.6852   1.7215   1.8461   2.0147
     2.0242   2.0664   2.0875   2.2265

          k = 0.3005 0.5206 0.0000 ( 71558 PWs)   bands (ev):

   -15.2579 -15.1374 -14.9439 -14.2190 -14.1505 -14.0447 -14.0329 -13.9425
   -13.8051 -13.6366 -13.6013 -13.5033 -13.4775 -13.4040 -13.3325 -13.2926
   -13.2650  -7.2745  -7.1492  -7.0761  -6.7562  -6.7129  -6.6625  -6.6393
    -6.6255  -6.5827  -6.4548  -6.3181  -6.2452  -6.1013  -5.9298  -5.6696
    -5.4838  -5.3976  -5.2949  -5.0393  -5.0016  -4.9664  -4.8401  -4.8337
    -4.7690  -4.7256  -4.6904  -4.6028  -4.5739  -4.5408  -4.4676  -4.3379
    -4.1632  -4.0389  -3.9357  -3.8362  -3.7866  -3.6957  -3.6203  -3.4498
    -3.3791  -3.3491  -3.2368  -3.2044  -3.1246  -3.0656  -2.9464  -2.8059
    -2.7085  -2.6109  -2.5060  -2.2424  -2.0316  -1.9941  -1.9562  -1.7966
    -1.7755  -1.7720  -1.7481  -1.6828  -1.5873  -1.2671   0.0097   0.2086
     1.0028   1.0241   1.0847   1.1427   1.2925   1.3736   1.4011   1.4295
     1.4552   1.5262   1.5668   1.6237   1.7527   1.8040   1.8400   1.9308
     1.9971   2.0265   2.0507   2.1022

          k = 0.3005 0.6362 0.0000 ( 71566 PWs)   bands (ev):

   -15.2576 -15.1379 -14.9437 -14.2192 -14.1501 -14.0446 -14.0340 -13.9410
   -13.8059 -13.6371 -13.6005 -13.5037 -13.4773 -13.4040 -13.3325 -13.2922
   -13.2653  -7.2740  -7.1487  -7.0773  -6.7564  -6.7125  -6.6625  -6.6391
    -6.6259  -6.5826  -6.4550  -6.3178  -6.2444  -6.1025  -5.9297  -5.6695
    -5.4841  -5.3975  -5.2950  -5.0378  -5.0017  -4.9689  -4.8396  -4.8321
    -4.7677  -4.7277  -4.6892  -4.6028  -4.5749  -4.5403  -4.4675  -4.3373
    -4.1650  -4.0385  -3.9345  -3.8374  -3.7872  -3.6972  -3.6178  -3.4485
    -3.3784  -3.3496  -3.2371  -3.2036  -3.1249  -3.0682  -2.9465  -2.8071
    -2.7069  -2.6104  -2.5066  -2.2422  -2.0324  -1.9940  -1.9548  -1.7970
    -1.7756  -1.7726  -1.7472  -1.6839  -1.5868  -1.2668   0.0094   0.2087
     1.0008   1.0232   1.0881   1.1444   1.2920   1.3728   1.4019   1.4295
     1.4544   1.5262   1.5652   1.6233   1.7529   1.8036   1.8397   1.9320
     1.9966   2.0281   2.0513   2.1021

          k = 0.3006-0.4049 0.0000 ( 71530 PWs)   bands (ev):

   -15.3617 -15.0591 -14.8464 -14.2817 -14.1777 -14.0905 -14.0075 -13.9156
   -13.7165 -13.6864 -13.6057 -13.5754 -13.4813 -13.3595 -13.3279 -13.3156
   -13.2453  -7.2876  -7.1310  -6.9632  -6.8258  -6.7277  -6.6903  -6.6328
    -6.6038  -6.5467  -6.4686  -6.3321  -6.2965  -6.0656  -5.9056  -5.5827
    -5.4666  -5.3886  -5.2882  -5.1312  -5.0557  -5.0015  -4.9390  -4.8525
    -4.7474  -4.7171  -4.6677  -4.6068  -4.5805  -4.5267  -4.4419  -4.3706
    -4.1813  -4.1035  -3.9236  -3.8860  -3.6998  -3.6568  -3.5909  -3.4669
    -3.3923  -3.2537  -3.2110  -3.1851  -3.0942  -3.0362  -2.9399  -2.7693
    -2.7024  -2.5823  -2.5129  -2.3106  -2.0896  -2.0254  -1.9643  -1.8837
    -1.8467  -1.7839  -1.7363  -1.6433  -1.5223  -1.2598   0.0232   0.1780
     0.9436   1.0097   1.1002   1.1404   1.3090   1.3458   1.3880   1.4257
     1.4773   1.5587   1.5925   1.6840   1.7390   1.7936   1.8167   1.9360
     1.9734   2.0380   2.0757   2.1563

          k = 0.3006-0.2892 0.0000 ( 71500 PWs)   bands (ev):

   -15.4485 -14.9879 -14.6922 -14.3635 -14.2914 -14.0497 -13.9661 -13.8679
   -13.7836 -13.6908 -13.6472 -13.5673 -13.4709 -13.3863 -13.3660 -13.2629
   -13.2226  -7.2845  -7.0575  -6.9100  -6.8436  -6.7760  -6.6942  -6.6375
    -6.6047  -6.5554  -6.4490  -6.3437  -6.2687  -6.0235  -5.9173  -5.4803
    -5.4174  -5.3632  -5.2825  -5.2201  -5.1528  -5.1103  -5.0168  -4.9145
    -4.8587  -4.7033  -4.6156  -4.6004  -4.5295  -4.4908  -4.4153  -4.3367
    -4.2509  -4.1603  -4.0224  -3.9345  -3.6758  -3.5955  -3.4847  -3.3792
    -3.2312  -3.2046  -3.1593  -3.1234  -3.1057  -3.0595  -2.9504  -2.7568
    -2.7147  -2.6081  -2.4396  -2.3948  -2.1491  -2.1030  -2.0218  -1.9828
    -1.9023  -1.8521  -1.6526  -1.5977  -1.4818  -1.2392   0.0460   0.1247
     0.9266   0.9796   1.1146   1.1467   1.2347   1.3213   1.3481   1.4170
     1.5295   1.5912   1.6271   1.6972   1.7686   1.7973   1.8520   1.8840
     1.8944   2.0465   2.1403   2.1937

          k = 0.3006-0.1735 0.0000 ( 71558 PWs)   bands (ev):

   -15.5089 -14.9040 -14.5564 -14.4590 -14.3343 -14.0030 -13.9644 -13.8915
   -13.8066 -13.7531 -13.6599 -13.5174 -13.4717 -13.4374 -13.3832 -13.2292
   -13.1960  -7.2478  -7.0077  -6.9355  -6.8835  -6.7328  -6.7326  -6.6278
    -6.6038  -6.5517  -6.3994  -6.3537  -6.2192  -5.9588  -5.9319  -5.4514
    -5.3576  -5.3154  -5.3032  -5.2922  -5.2394  -5.2376  -5.0749  -4.9752
    -4.9596  -4.7340  -4.5683  -4.5292  -4.5090  -4.4496  -4.4492  -4.3710
    -4.2579  -4.1894  -4.0479  -3.8667  -3.6884  -3.5791  -3.4638  -3.2221
    -3.2098  -3.1320  -3.1292  -3.0724  -3.0599  -2.9983  -2.9578  -2.8048
    -2.7391  -2.6299  -2.4939  -2.3776  -2.2050  -2.1331  -2.1137  -2.0538
    -1.9512  -1.9360  -1.5818  -1.5354  -1.4636  -1.2099   0.0655   0.0716
     0.9533   0.9724   1.0759   1.1567   1.2102   1.2474   1.3198   1.3989
     1.5243   1.5998   1.6546   1.6987   1.7685   1.7883   1.8017   1.8894
     1.9580   2.0528   2.1275   2.1850

          k = 0.4007 0.6941 0.0000 ( 71532 PWs)   bands (ev):

   -15.2772 -15.1603 -14.8659 -14.2317 -14.2061 -14.1241 -13.9714 -13.8644
   -13.7901 -13.6461 -13.6135 -13.5843 -13.4116 -13.3979 -13.3370 -13.2949
   -13.2722  -7.3092  -7.0919  -7.0476  -6.7622  -6.7436  -6.6846  -6.6474
    -6.5864  -6.5787  -6.4499  -6.3114  -6.3045  -6.0854  -5.9615  -5.5748
    -5.4728  -5.3899  -5.2854  -5.1051  -5.0380  -4.9637  -4.9143  -4.7767
    -4.7592  -4.7253  -4.6649  -4.6187  -4.5908  -4.5166  -4.4852  -4.3098
    -4.2112  -4.0740  -3.9336  -3.8676  -3.8124  -3.5532  -3.5205  -3.4376
    -3.3957  -3.3648  -3.3148  -3.2098  -3.1981  -2.9988  -2.9548  -2.7889
    -2.6937  -2.5704  -2.4829  -2.2759  -2.0726  -1.9971  -1.9383  -1.8679
    -1.8079  -1.7607  -1.7100  -1.6593  -1.5914  -1.2697   0.0208   0.1924
     0.9350   1.0139   1.1409   1.1565   1.3005   1.3589   1.4027   1.4180
     1.4594   1.5326   1.6091   1.6436   1.7207   1.7765   1.8887   1.9436
     1.9726   2.0353   2.0715   2.1100

          k = 0.4008-0.3471 0.0000 ( 71533 PWs)   bands (ev):

   -15.3417 -15.1397 -14.7181 -14.3591 -14.2613 -14.1223 -13.8952 -13.8235
   -13.7170 -13.6955 -13.6704 -13.6285 -13.4059 -13.3611 -13.3273 -13.3163
   -13.2711  -7.3395  -7.0248  -6.9515  -6.8147  -6.7638  -6.7398  -6.6395
    -6.5797  -6.5165  -6.4681  -6.3901  -6.2919  -6.0592  -5.9924  -5.4828
    -5.3810  -5.3580  -5.2653  -5.1861  -5.1433  -5.0522  -4.9235  -4.7990
    -4.7868  -4.6800  -4.6536  -4.5947  -4.5751  -4.5479  -4.4762  -4.3472
    -4.2427  -4.0902  -3.9944  -3.8581  -3.6860  -3.5970  -3.4970  -3.4262
    -3.3717  -3.3092  -3.2644  -3.1933  -3.1551  -3.0494  -2.9927  -2.7466
    -2.6907  -2.5713  -2.3916  -2.3252  -2.1157  -2.0642  -1.9630  -1.9087
    -1.8286  -1.7573  -1.7004  -1.6647  -1.5540  -1.2713   0.0517   0.1481
     0.8974   0.9647   1.1673   1.1991   1.2914   1.3295   1.3841   1.4400
     1.4661   1.5754   1.6235   1.6895   1.7158   1.7794   1.8694   1.9230
     1.9747   2.0655   2.0951   2.1519

          k = 0.4008-0.2314 0.0000 ( 71498 PWs)   bands (ev):

   -15.4063 -15.0759 -14.5918 -14.4747 -14.2918 -14.0915 -13.8395 -13.8241
   -13.7961 -13.7226 -13.6569 -13.6083 -13.4002 -13.3964 -13.3553 -13.2742
   -13.2544  -7.3309  -6.9641  -6.9440  -6.8322  -6.7676  -6.7662  -6.6211
    -6.5750  -6.5707  -6.4245  -6.3973  -6.2837  -6.0162  -6.0068  -5.4683
    -5.3172  -5.2873  -5.2527  -5.2461  -5.1991  -5.1718  -4.9228  -4.9111
    -4.8310  -4.6528  -4.6340  -4.5806  -4.5545  -4.4915  -4.4640  -4.3560
    -4.2520  -4.1513  -3.9910  -3.9771  -3.6536  -3.5627  -3.4200  -3.3723
    -3.3646  -3.2257  -3.1923  -3.1734  -3.1254  -3.0816  -3.0098  -2.7567
    -2.6939  -2.5860  -2.4259  -2.2966  -2.1478  -2.0708  -2.0588  -1.9420
    -1.8660  -1.7783  -1.6796  -1.6438  -1.5131  -1.2594   0.0872   0.0959
     0.9070   0.9408   1.1473   1.2393   1.2592   1.2750   1.3664   1.4352
     1.5171   1.5716   1.6326   1.7100   1.7554   1.8121   1.8514   1.8781
     1.9190   2.0492   2.1833   2.1958

          k =-0.5009-0.8676 0.0000 ( 71552 PWs)   bands (ev):

   -15.3240 -15.1816 -14.6037 -14.4814 -14.2593 -14.1388 -13.8329 -13.7494
   -13.7204 -13.7130 -13.7126 -13.6704 -13.3825 -13.3290 -13.3283 -13.3170
   -13.3097  -7.3604  -6.9452  -6.9429  -6.8242  -6.8008  -6.7554  -6.6653
    -6.5233  -6.4881  -6.4692  -6.4680  -6.2886  -6.0544  -6.0244  -5.4775
    -5.3036  -5.2759  -5.2408  -5.2379  -5.1789  -5.1375  -4.8800  -4.8377
    -4.7366  -4.6638  -4.6358  -4.6217  -4.5724  -4.5467  -4.5298  -4.4228
    -4.1943  -4.0633  -4.0113  -3.7572  -3.6662  -3.6609  -3.5258  -3.4727
    -3.3482  -3.3095  -3.2455  -3.1866  -3.0953  -3.0835  -3.0476  -2.7391
    -2.6775  -2.5766  -2.4003  -2.2607  -2.1301  -2.0564  -2.0268  -1.8783
    -1.8148  -1.7674  -1.7058  -1.6305  -1.5909  -1.2788   0.0945   0.1041
     0.8913   0.9297   1.1926   1.2521   1.2730   1.3091   1.3922   1.4489
     1.4551   1.5919   1.6186   1.7108   1.7130   1.7688   1.8530   1.9719
     1.9801   2.0558   2.1098   2.1441

          k =-0.1002-0.0578 0.0000 ( 71639 PWs)   bands (ev):

   -15.6348 -14.5205 -14.4546 -14.4205 -14.3307 -14.2120 -14.1570 -13.9059
   -13.7847 -13.7322 -13.6717 -13.6143 -13.5835 -13.4063 -13.3967 -13.1636
   -13.1223  -7.1174  -6.9804  -6.9107  -6.9045  -6.8214  -6.7602  -6.6478
    -6.5967  -6.4922  -6.1771  -6.1654  -5.9517  -5.8143  -5.7763  -5.6136
    -5.5964  -5.5271  -5.4318  -5.4280  -5.3635  -5.3170  -5.3133  -5.1260
    -5.0050  -4.9733  -4.9105  -4.4699  -4.3726  -4.3291  -4.2477  -4.1951
    -4.1714  -4.0542  -3.9473  -3.8833  -3.5314  -3.4969  -3.4773  -3.3987
    -3.2096  -3.0705  -2.9786  -2.9692  -2.8526  -2.8511  -2.7373  -2.7106
    -2.6973  -2.6500  -2.6208  -2.4970  -2.3680  -2.3263  -2.3018  -2.2853
    -2.1839  -2.1633  -1.4975  -1.3281  -1.3270  -1.1142  -0.0036  -0.0006
     0.8859   0.8885   1.1413   1.1643   1.2329   1.2564   1.3185   1.3217
     1.3887   1.4363   1.4370   1.5647   1.6377   1.6608   1.9240   1.9570
     2.0442   2.0725   2.2530   2.3951

          k =-0.2004-0.1157 0.0000 ( 71595 PWs)   bands (ev):

   -15.5868 -14.7145 -14.4986 -14.4498 -14.3483 -14.0909 -14.0128 -13.9048
   -13.8163 -13.7750 -13.6682 -13.5453 -13.4994 -13.4489 -13.3950 -13.1901
   -13.1508  -7.1303  -7.0613  -6.9155  -6.8977  -6.7930  -6.7498  -6.6140
    -6.5915  -6.4564  -6.3399  -6.3280  -6.0926  -5.8904  -5.8440  -5.4866
    -5.4189  -5.4030  -5.3616  -5.3563  -5.3004  -5.2920  -5.2165  -5.1179
    -4.9911  -4.8599  -4.7597  -4.5211  -4.4537  -4.3803  -4.3732  -4.2663
    -4.2050  -4.0673  -4.0385  -3.8063  -3.6916  -3.5058  -3.4978  -3.3122
    -3.2145  -3.0820  -2.9603  -2.9361  -2.8919  -2.8792  -2.8652  -2.8085
    -2.7839  -2.7312  -2.5778  -2.4444  -2.2904  -2.2263  -2.1857  -2.1840
    -2.0826  -2.0534  -1.5110  -1.4199  -1.4071  -1.1550   0.0312   0.0354
     0.9741   0.9774   1.0365   1.0920   1.1961   1.2402   1.3026   1.3546
     1.4624   1.5523   1.5733   1.6490   1.6846   1.7235   1.8447   2.0175
     2.0245   2.0655   2.0851   2.2271

          k =-0.3006-0.1735 0.0000 ( 71562 PWs)   bands (ev):

   -15.5089 -14.9038 -14.5563 -14.4591 -14.3343 -14.0034 -13.9643 -13.8914
   -13.8064 -13.7532 -13.6596 -13.5174 -13.4716 -13.4378 -13.3833 -13.2291
   -13.1960  -7.2491  -7.0070  -6.9350  -6.8831  -6.7329  -6.7318  -6.6296
    -6.6024  -6.5515  -6.3989  -6.3548  -6.2199  -5.9579  -5.9313  -5.4508
    -5.3572  -5.3150  -5.3026  -5.2924  -5.2403  -5.2369  -5.0768  -4.9759
    -4.9592  -4.7345  -4.5700  -4.5284  -4.5120  -4.4491  -4.4455  -4.3726
    -4.2591  -4.1883  -4.0463  -3.8687  -3.6872  -3.5778  -3.4634  -3.2226
    -3.2125  -3.1312  -3.1273  -3.0749  -3.0594  -2.9985  -2.9555  -2.8065
    -2.7382  -2.6297  -2.4936  -2.3762  -2.2041  -2.1348  -2.1139  -2.0537
    -1.9505  -1.9368  -1.5821  -1.5346  -1.4636  -1.2104   0.0664   0.0712
     0.9519   0.9733   1.0743   1.1578   1.2100   1.2460   1.3221   1.3998
     1.5263   1.5983   1.6530   1.6977   1.7681   1.7896   1.8013   1.8904
     1.9561   2.0533   2.1278   2.1857

          k =-0.4007-0.2313 0.0000 ( 71496 PWs)   bands (ev):

   -15.4064 -15.0756 -14.5917 -14.4749 -14.2916 -14.0920 -13.8395 -13.8239
   -13.7960 -13.7223 -13.6571 -13.6083 -13.4001 -13.3962 -13.3559 -13.2740
   -13.2544  -7.3326  -6.9624  -6.9428  -6.8319  -6.7694  -6.7656  -6.6209
    -6.5744  -6.5712  -6.4243  -6.3975  -6.2850  -6.0156  -6.0058  -5.4675
    -5.3176  -5.2871  -5.2525  -5.2466  -5.1982  -5.1719  -4.9253  -4.9117
    -4.8299  -4.6553  -4.6372  -4.5816  -4.5477  -4.4914  -4.4644  -4.3566
    -4.2523  -4.1501  -3.9944  -3.9766  -3.6534  -3.5625  -3.4200  -3.3696
    -3.3633  -3.2260  -3.1949  -3.1739  -3.1253  -3.0800  -3.0088  -2.7593
    -2.6930  -2.5855  -2.4249  -2.2957  -2.1473  -2.0710  -2.0602  -1.9416
    -1.8651  -1.7786  -1.6804  -1.6430  -1.5132  -1.2602   0.0890   0.0948
     0.9060   0.9425   1.1443   1.2394   1.2568   1.2767   1.3686   1.4357
     1.5161   1.5738   1.6320   1.7097   1.7568   1.8101   1.8511   1.8777
     1.9180   2.0507   2.1829   2.1950

          k = 0.5009 0.2892 0.0000 ( 71532 PWs)   bands (ev):

   -15.3245 -15.1811 -14.6036 -14.4815 -14.2589 -14.1395 -13.8327 -13.7496
   -13.7185 -13.7152 -13.7113 -13.6710 -13.3821 -13.3318 -13.3253 -13.3197
   -13.3079  -7.3621  -6.9428  -6.9408  -6.8239  -6.8033  -6.7559  -6.6645
    -6.5236  -6.4874  -6.4701  -6.4673  -6.2902  -6.0538  -6.0234  -5.4766
    -5.3042  -5.2756  -5.2418  -5.2378  -5.1779  -5.1371  -4.8815  -4.8384
    -4.7376  -4.6667  -4.6370  -4.6232  -4.5686  -4.5433  -4.5287  -4.4240
    -4.1939  -4.0627  -4.0141  -3.7623  -3.6643  -3.6614  -3.5218  -3.4725
    -3.3450  -3.3082  -3.2485  -3.1891  -3.0928  -3.0816  -3.0488  -2.7422
    -2.6766  -2.5761  -2.3991  -2.2600  -2.1298  -2.0566  -2.0281  -1.8774
    -1.8139  -1.7681  -1.7049  -1.6315  -1.5909  -1.2798   0.0967   0.1029
     0.8904   0.9316   1.1897   1.2482   1.2725   1.3121   1.3931   1.4487
     1.4575   1.5940   1.6170   1.7109   1.7156   1.7669   1.8522   1.9707
     1.9784   2.0553   2.1108   2.1456

          k =-0.2004-0.2314 0.0000 ( 71540 PWs)   bands (ev):

   -15.5397 -14.8111 -14.6401 -14.3906 -14.2858 -14.0937 -13.9544 -13.8954
   -13.8494 -13.7363 -13.6391 -13.5363 -13.4911 -13.4387 -13.3888 -13.2157
   -13.1765  -7.1868  -7.0662  -6.9680  -6.8223  -6.7590  -6.7212  -6.6625
    -6.5837  -6.5039  -6.4118  -6.3373  -6.1769  -5.9686  -5.8216  -5.5289
    -5.4250  -5.3734  -5.3114  -5.2678  -5.2212  -5.1948  -5.1294  -5.0702
    -4.9559  -4.7902  -4.6595  -4.5149  -4.4995  -4.4665  -4.4299  -4.2994
    -4.2022  -4.1592  -4.0146  -3.8089  -3.7637  -3.5447  -3.5069  -3.2567
    -3.2041  -3.1378  -3.1004  -3.0488  -2.9703  -2.9314  -2.8386  -2.8075
    -2.7216  -2.6810  -2.5310  -2.4836  -2.2179  -2.1648  -2.1211  -2.0835
    -2.0053  -1.9860  -1.5449  -1.5082  -1.4358  -1.1890   0.0341   0.0812
     0.9766   1.0089   1.0445   1.0987   1.1504   1.2923   1.3244   1.3747
     1.4978   1.5921   1.6395   1.6950   1.7449   1.7546   1.7852   1.9261
     2.0204   2.0618   2.0933   2.1705

          k =-0.3006-0.2892 0.0000 ( 71507 PWs)   bands (ev):

   -15.4486 -14.9876 -14.6924 -14.3633 -14.2913 -14.0501 -13.9664 -13.8678
   -13.7830 -13.6910 -13.6467 -13.5677 -13.4708 -13.3863 -13.3664 -13.2630
   -13.2225  -7.2858  -7.0570  -6.9092  -6.8420  -6.7771  -6.6941  -6.6383
    -6.6041  -6.5549  -6.4489  -6.3443  -6.2697  -6.0225  -5.9168  -5.4799
    -5.4163  -5.3638  -5.2810  -5.2200  -5.1542  -5.1102  -5.0180  -4.9152
    -4.8600  -4.7036  -4.6187  -4.6014  -4.5261  -4.4900  -4.4153  -4.3378
    -4.2502  -4.1579  -4.0219  -3.9382  -3.6753  -3.5948  -3.4856  -3.3761
    -3.2339  -3.2053  -3.1597  -3.1239  -3.1054  -3.0578  -2.9481  -2.7599
    -2.7132  -2.6065  -2.4391  -2.3951  -2.1479  -2.1041  -2.0233  -1.9828
    -1.9015  -1.8525  -1.6520  -1.5973  -1.4820  -1.2400   0.0468   0.1245
     0.9274   0.9795   1.1114   1.1456   1.2348   1.3225   1.3504   1.4177
     1.5291   1.5920   1.6279   1.6957   1.7687   1.7976   1.8524   1.8831
     1.8933   2.0471   2.1392   2.1938

          k =-0.4007-0.3470 0.0000 ( 71533 PWs)   bands (ev):

   -15.3421 -15.1392 -14.7181 -14.3591 -14.2610 -14.1229 -13.8951 -13.8240
   -13.7153 -13.6959 -13.6702 -13.6292 -13.4058 -13.3609 -13.3282 -13.3162
   -13.2708  -7.3412  -7.0239  -6.9491  -6.8151  -6.7651  -6.7396  -6.6390
    -6.5798  -6.5163  -6.4678  -6.3905  -6.2932  -6.0582  -5.9918  -5.4821
    -5.3809  -5.3585  -5.2646  -5.1859  -5.1440  -5.0520  -4.9242  -4.8015
    -4.7855  -4.6841  -4.6538  -4.5948  -4.5751  -4.5424  -4.4773  -4.3475
    -4.2430  -4.0875  -3.9984  -3.8574  -3.6884  -3.5965  -3.4970  -3.4249
    -3.3698  -3.3063  -3.2665  -3.1955  -3.1537  -3.0501  -2.9906  -2.7490
    -2.6901  -2.5704  -2.3901  -2.3256  -2.1152  -2.0650  -1.9640  -1.9084
    -1.8277  -1.7570  -1.7002  -1.6650  -1.5543  -1.2723   0.0524   0.1482
     0.8977   0.9656   1.1640   1.1968   1.2905   1.3324   1.3847   1.4401
     1.4668   1.5758   1.6258   1.6903   1.7159   1.7785   1.8682   1.9224
     1.9733   2.0652   2.0949   2.1521

          k = 0.5009 0.1735 0.0000 ( 71535 PWs)   bands (ev):

   -15.3420 -15.1393 -14.7181 -14.3592 -14.2610 -14.1228 -13.8951 -13.8235
   -13.7153 -13.6968 -13.6706 -13.6283 -13.4059 -13.3609 -13.3289 -13.3150
   -13.2712  -7.3412  -7.0229  -6.9502  -6.8153  -6.7644  -6.7398  -6.6392
    -6.5798  -6.5163  -6.4681  -6.3902  -6.2931  -6.0589  -5.9913  -5.4821
    -5.3812  -5.3585  -5.2652  -5.1862  -5.1432  -5.0518  -4.9243  -4.8003
    -4.7860  -4.6817  -4.6558  -4.5955  -4.5752  -4.5421  -4.4756  -4.3494
    -4.2433  -4.0889  -3.9973  -3.8587  -3.6871  -3.5922  -3.4963  -3.4258
    -3.3756  -3.3049  -3.2660  -3.1956  -3.1535  -3.0488  -2.9921  -2.7484
    -2.6901  -2.5711  -2.3897  -2.3256  -2.1154  -2.0650  -1.9636  -1.9074
    -1.8280  -1.7582  -1.6994  -1.6655  -1.5541  -1.2721   0.0522   0.1483
     0.8973   0.9659   1.1647   1.1973   1.2904   1.3319   1.3848   1.4396
     1.4664   1.5759   1.6258   1.6897   1.7159   1.7787   1.8675   1.9230
     1.9731   2.0660   2.0958   2.1515

          k = 0.4008 0.1157 0.0000 ( 71506 PWs)   bands (ev):

   -15.4486 -14.9878 -14.6921 -14.3636 -14.2913 -14.0500 -13.9660 -13.8676
   -13.7835 -13.6912 -13.6469 -13.5673 -13.4710 -13.3862 -13.3663 -13.2628
   -13.2227  -7.2859  -7.0560  -6.9097  -6.8429  -6.7763  -6.6942  -6.6382
    -6.6041  -6.5553  -6.4492  -6.3438  -6.2693  -6.0233  -5.9164  -5.4802
    -5.4171  -5.3638  -5.2823  -5.2205  -5.1521  -5.1098  -5.0180  -4.9147
    -4.8587  -4.7042  -4.6134  -4.6050  -4.5265  -4.4902  -4.4153  -4.3380
    -4.2519  -4.1603  -4.0217  -3.9355  -3.6741  -3.5953  -3.4850  -3.3770
    -3.2326  -3.2062  -3.1592  -3.1232  -3.1046  -3.0598  -2.9502  -2.7584
    -2.7135  -2.6082  -2.4377  -2.3951  -2.1487  -2.1041  -2.0218  -1.9820
    -1.9022  -1.8525  -1.6530  -1.5974  -1.4818  -1.2397   0.0462   0.1249
     0.9258   0.9811   1.1123   1.1470   1.2350   1.3210   1.3496   1.4169
     1.5282   1.5938   1.6274   1.6947   1.7687   1.7972   1.8534   1.8835
     1.8933   2.0464   2.1398   2.1951

          k = 0.3006 0.0578 0.0000 ( 71536 PWs)   bands (ev):

   -15.5397 -14.8114 -14.6397 -14.3907 -14.2864 -14.0930 -13.9541 -13.8958
   -13.8494 -13.7362 -13.6393 -13.5364 -13.4910 -13.4383 -13.3889 -13.2157
   -13.1766  -7.1870  -7.0655  -6.9682  -6.8220  -6.7588  -6.7215  -6.6623
    -6.5846  -6.5047  -6.4118  -6.3366  -6.1763  -5.9692  -5.8216  -5.5301
    -5.4258  -5.3734  -5.3124  -5.2688  -5.2180  -5.1941  -5.1295  -5.0695
    -4.9552  -4.7909  -4.6599  -4.5150  -4.4979  -4.4651  -4.4310  -4.2986
    -4.2042  -4.1599  -4.0158  -3.8079  -3.7626  -3.5452  -3.5075  -3.2561
    -3.2033  -3.1380  -3.1007  -3.0462  -2.9708  -2.9315  -2.8424  -2.8069
    -2.7226  -2.6816  -2.5300  -2.4832  -2.2191  -2.1643  -2.1193  -2.0832
    -2.0055  -1.9863  -1.5448  -1.5094  -1.4352  -1.1887   0.0333   0.0818
     0.9741   1.0121   1.0447   1.1001   1.1513   1.2899   1.3237   1.3733
     1.4976   1.5931   1.6389   1.6963   1.7451   1.7542   1.7857   1.9263
     2.0190   2.0613   2.0944   2.1715

          k = 0.2004-0.0000 0.0000 ( 71609 PWs)   bands (ev):

   -15.6027 -14.6409 -14.5526 -14.4199 -14.2836 -14.1889 -14.0240 -13.8683
   -13.8551 -13.7620 -13.6512 -13.5859 -13.5116 -13.4354 -13.3955 -13.1816
   -13.1413  -7.0945  -7.0669  -6.9602  -6.8563  -6.8112  -6.7260  -6.6620
    -6.5799  -6.4458  -6.3062  -6.2982  -6.0530  -5.8973  -5.7666  -5.5888
    -5.4442  -5.4183  -5.3667  -5.3382  -5.3191  -5.3029  -5.2796  -5.1271
    -4.9893  -4.9147  -4.8032  -4.5085  -4.4305  -4.3652  -4.3314  -4.2709
    -4.1591  -4.0793  -3.9787  -3.8581  -3.6358  -3.5114  -3.4948  -3.3377
    -3.2063  -3.0864  -2.9685  -2.9009  -2.8884  -2.8617  -2.8208  -2.7964
    -2.7868  -2.6424  -2.6054  -2.5305  -2.2997  -2.2503  -2.2316  -2.1879
    -2.1158  -2.0874  -1.5033  -1.4022  -1.3749  -1.1418   0.0140   0.0320
     0.9524   0.9548   1.0595   1.1121   1.1683   1.2710   1.3075   1.3392
     1.4408   1.5137   1.5502   1.6335   1.6558   1.7048   1.8777   1.9968
     2.0304   2.0641   2.1273   2.2766

          k =-0.3006-0.4049 0.0000 ( 71532 PWs)   bands (ev):

   -15.3619 -15.0586 -14.8467 -14.2815 -14.1774 -14.0909 -14.0077 -13.9161
   -13.7153 -13.6862 -13.6065 -13.5752 -13.4813 -13.3592 -13.3284 -13.3159
   -13.2450  -7.2888  -7.1309  -6.9616  -6.8257  -6.7288  -6.6897  -6.6327
    -6.6037  -6.5464  -6.4683  -6.3327  -6.2974  -6.0644  -5.9053  -5.5827
    -5.4658  -5.3890  -5.2876  -5.1316  -5.0562  -4.9993  -4.9407  -4.8538
    -4.7473  -4.7203  -4.6672  -4.6095  -4.5764  -4.5262  -4.4422  -4.3712
    -4.1801  -4.1005  -3.9280  -3.8848  -3.6997  -3.6582  -3.5915  -3.4655
    -3.3925  -3.2544  -3.2108  -3.1857  -3.0931  -3.0365  -2.9367  -2.7690
    -2.7035  -2.5824  -2.5118  -2.3112  -2.0887  -2.0255  -1.9665  -1.8841
    -1.8460  -1.7839  -1.7348  -1.6432  -1.5226  -1.2606   0.0239   0.1779
     0.9454   1.0108   1.0960   1.1377   1.3090   1.3485   1.3884   1.4255
     1.4770   1.5585   1.5954   1.6860   1.7375   1.7933   1.8168   1.9356
     1.9721   2.0381   2.0736   2.1565

          k =-0.4007-0.4627 0.0000 ( 71524 PWs)   bands (ev):

   -15.2777 -15.1597 -14.8660 -14.2314 -14.2062 -14.1245 -13.9712 -13.8656
   -13.7888 -13.6460 -13.6141 -13.5840 -13.4117 -13.3978 -13.3371 -13.2953
   -13.2719  -7.3107  -7.0909  -7.0466  -6.7627  -6.7436  -6.6846  -6.6472
    -6.5859  -6.5792  -6.4494  -6.3123  -6.3051  -6.0846  -5.9608  -5.5752
    -5.4721  -5.3903  -5.2853  -5.1057  -5.0381  -4.9622  -4.9153  -4.7771
    -4.7592  -4.7268  -4.6649  -4.6200  -4.5890  -4.5158  -4.4847  -4.3108
    -4.2122  -4.0737  -3.9367  -3.8667  -3.8086  -3.5548  -3.5196  -3.4381
    -3.3965  -3.3672  -3.3120  -3.2097  -3.1987  -2.9978  -2.9541  -2.7877
    -2.6949  -2.5709  -2.4818  -2.2760  -2.0721  -1.9987  -1.9372  -1.8687
    -1.8065  -1.7617  -1.7088  -1.6595  -1.5919  -1.2703   0.0213   0.1925
     0.9359   1.0151   1.1405   1.1517   1.3007   1.3598   1.4049   1.4166
     1.4597   1.5318   1.6128   1.6450   1.7195   1.7763   1.8872   1.9437
     1.9717   2.0340   2.0711   2.1103

          k = 0.5009 0.0578 0.0000 ( 71526 PWs)   bands (ev):

   -15.3618 -15.0589 -14.8465 -14.2817 -14.1776 -14.0908 -14.0076 -13.9154
   -13.7158 -13.6872 -13.6054 -13.5753 -13.4815 -13.3594 -13.3286 -13.3151
   -13.2453  -7.2888  -7.1298  -6.9628  -6.8260  -6.7278  -6.6902  -6.6328
    -6.6038  -6.5466  -6.4686  -6.3322  -6.2969  -6.0655  -5.9048  -5.5832
    -5.4662  -5.3889  -5.2882  -5.1315  -5.0553  -5.0016  -4.9385  -4.8527
    -4.7472  -4.7187  -4.6660  -4.6114  -4.5768  -4.5254  -4.4416  -4.3715
    -4.1833  -4.1029  -3.9241  -3.8860  -3.6973  -3.6580  -3.5897  -3.4667
    -3.3931  -3.2539  -3.2114  -3.1847  -3.0951  -3.0355  -2.9400  -2.7682
    -2.7025  -2.5831  -2.5120  -2.3105  -2.0893  -2.0268  -1.9626  -1.8839
    -1.8468  -1.7838  -1.7364  -1.6434  -1.5224  -1.2601   0.0234   0.1781
     0.9437   1.0108   1.0993   1.1389   1.3089   1.3471   1.3884   1.4247
     1.4767   1.5582   1.5949   1.6853   1.7370   1.7936   1.8167   1.9362
     1.9724   2.0382   2.0755   2.1567

          k = 0.4008-0.0000 0.0000 ( 71484 PWs)   bands (ev):

   -15.4630 -14.9205 -14.7770 -14.3390 -14.1859 -14.0966 -14.0192 -13.9023
   -13.7779 -13.6819 -13.5908 -13.5683 -13.5250 -13.3749 -13.3745 -13.2599
   -13.2103  -7.2375  -7.1270  -6.9131  -6.8364  -6.7498  -6.6871  -6.6619
    -6.5934  -6.5437  -6.4688  -6.3280  -6.2571  -6.0287  -5.8245  -5.5824
    -5.4494  -5.3823  -5.2958  -5.1995  -5.0967  -5.0871  -5.0358  -4.9376
    -4.8548  -4.7068  -4.6730  -4.6119  -4.5437  -4.5142  -4.4076  -4.3087
    -4.1771  -4.1523  -4.0140  -3.8632  -3.7810  -3.5958  -3.5234  -3.3840
    -3.2459  -3.2133  -3.1583  -3.1157  -3.0916  -2.9518  -2.8779  -2.7655
    -2.6803  -2.6107  -2.5883  -2.3992  -2.1439  -2.0790  -2.0382  -1.9714
    -1.9219  -1.8953  -1.6433  -1.5816  -1.4659  -1.2296   0.0290   0.1373
     0.9524   1.0302   1.0486   1.1086   1.2232   1.3409   1.3691   1.3936
     1.5162   1.6070   1.6186   1.7160   1.7427   1.7675   1.8507   1.8757
     1.9235   2.0659   2.1124   2.1886

          k = 0.3006-0.0579 0.0000 ( 71540 PWs)   bands (ev):

   -15.5397 -14.8115 -14.6397 -14.3908 -14.2862 -14.0932 -13.9539 -13.8959
   -13.8495 -13.7361 -13.6397 -13.5362 -13.4910 -13.4382 -13.3889 -13.2157
   -13.1766  -7.1860  -7.0663  -6.9682  -6.8221  -6.7593  -6.7217  -6.6617
    -6.5847  -6.5049  -6.4117  -6.3364  -6.1760  -5.9695  -5.8222  -5.5296
    -5.4264  -5.3730  -5.3129  -5.2683  -5.2188  -5.1944  -5.1291  -5.0686
    -4.9555  -4.7903  -4.6598  -4.5138  -4.4966  -4.4658  -4.4332  -4.2982
    -4.2028  -4.1602  -4.0166  -3.8084  -3.7625  -3.5460  -3.5075  -3.2558
    -3.2017  -3.1389  -3.1012  -3.0457  -2.9703  -2.9329  -2.8410  -2.8070
    -2.7224  -2.6815  -2.5313  -2.4834  -2.2194  -2.1633  -2.1198  -2.0834
    -2.0048  -1.9866  -1.5446  -1.5096  -1.4354  -1.1886   0.0333   0.0816
     0.9756   1.0110   1.0452   1.0993   1.1515   1.2912   1.3216   1.3734
     1.4970   1.5925   1.6408   1.6964   1.7455   1.7542   1.7850   1.9259
     2.0192   2.0635   2.0931   2.1710

          k =-0.4007-0.5784 0.0000 ( 71566 PWs)   bands (ev):

   -15.2576 -15.1379 -14.9437 -14.2192 -14.1501 -14.0446 -14.0340 -13.9410
   -13.8059 -13.6371 -13.6005 -13.5037 -13.4773 -13.4040 -13.3325 -13.2923
   -13.2653  -7.2740  -7.1487  -7.0773  -6.7564  -6.7125  -6.6625  -6.6391
    -6.6259  -6.5826  -6.4550  -6.3178  -6.2444  -6.1025  -5.9297  -5.6695
    -5.4841  -5.3975  -5.2950  -5.0378  -5.0017  -4.9689  -4.8396  -4.8321
    -4.7677  -4.7277  -4.6892  -4.6028  -4.5749  -4.5403  -4.4675  -4.3373
    -4.1650  -4.0385  -3.9345  -3.8374  -3.7872  -3.6972  -3.6178  -3.4485
    -3.3784  -3.3496  -3.2371  -3.2036  -3.1249  -3.0682  -2.9465  -2.8071
    -2.7069  -2.6104  -2.5066  -2.2422  -2.0324  -1.9940  -1.9548  -1.7970
    -1.7756  -1.7726  -1.7472  -1.6839  -1.5868  -1.2668   0.0094   0.2087
     1.0008   1.0232   1.0881   1.1444   1.2920   1.3728   1.4019   1.4295
     1.4544   1.5262   1.5652   1.6233   1.7529   1.8036   1.8397   1.9320
     1.9966   2.0281   2.0513   2.1021

          k = 0.5009-0.0579 0.0000 ( 71530 PWs)   bands (ev):

   -15.3617 -15.0591 -14.8464 -14.2817 -14.1777 -14.0905 -14.0075 -13.9156
   -13.7165 -13.6864 -13.6057 -13.5754 -13.4813 -13.3595 -13.3279 -13.3156
   -13.2453  -7.2876  -7.1310  -6.9632  -6.8258  -6.7277  -6.6903  -6.6328
    -6.6038  -6.5467  -6.4686  -6.3321  -6.2965  -6.0656  -5.9056  -5.5827
    -5.4666  -5.3886  -5.2882  -5.1312  -5.0557  -5.0015  -4.9390  -4.8525
    -4.7474  -4.7171  -4.6677  -4.6068  -4.5805  -4.5267  -4.4419  -4.3706
    -4.1813  -4.1035  -3.9236  -3.8860  -3.6998  -3.6568  -3.5909  -3.4669
    -3.3923  -3.2537  -3.2110  -3.1851  -3.0942  -3.0362  -2.9399  -2.7693
    -2.7024  -2.5823  -2.5129  -2.3106  -2.0896  -2.0254  -1.9643  -1.8837
    -1.8467  -1.7839  -1.7363  -1.6433  -1.5223  -1.2598   0.0232   0.1780
     0.9436   1.0097   1.1002   1.1404   1.3090   1.3458   1.3880   1.4257
     1.4773   1.5587   1.5925   1.6840   1.7390   1.7936   1.8167   1.9360
     1.9734   2.0380   2.0757   2.1562

          k = 0.4008-0.1157 0.0000 ( 71500 PWs)   bands (ev):

   -15.4485 -14.9879 -14.6922 -14.3635 -14.2914 -14.0497 -13.9661 -13.8679
   -13.7836 -13.6908 -13.6472 -13.5673 -13.4709 -13.3863 -13.3660 -13.2629
   -13.2226  -7.2845  -7.0575  -6.9100  -6.8436  -6.7760  -6.6942  -6.6375
    -6.6047  -6.5554  -6.4490  -6.3437  -6.2687  -6.0235  -5.9173  -5.4803
    -5.4174  -5.3632  -5.2825  -5.2201  -5.1528  -5.1103  -5.0168  -4.9145
    -4.8587  -4.7033  -4.6156  -4.6003  -4.5295  -4.4908  -4.4153  -4.3367
    -4.2509  -4.1603  -4.0224  -3.9345  -3.6758  -3.5955  -3.4847  -3.3792
    -3.2312  -3.2046  -3.1593  -3.1234  -3.1057  -3.0595  -2.9504  -2.7568
    -2.7147  -2.6081  -2.4396  -2.3948  -2.1491  -2.1030  -2.0218  -1.9828
    -1.9023  -1.8521  -1.6526  -1.5977  -1.4818  -1.2392   0.0460   0.1246
     0.9266   0.9796   1.1146   1.1467   1.2347   1.3213   1.3481   1.4170
     1.5295   1.5912   1.6271   1.6972   1.7686   1.7973   1.8520   1.8840
     1.8944   2.0465   2.1403   2.1937

          k = 0.5010-0.1735 0.0000 ( 71533 PWs)   bands (ev):

   -15.3417 -15.1397 -14.7181 -14.3591 -14.2613 -14.1223 -13.8952 -13.8235
   -13.7170 -13.6955 -13.6704 -13.6285 -13.4059 -13.3611 -13.3273 -13.3163
   -13.2711  -7.3395  -7.0248  -6.9515  -6.8147  -6.7638  -6.7398  -6.6395
    -6.5797  -6.5165  -6.4681  -6.3901  -6.2919  -6.0592  -5.9924  -5.4828
    -5.3810  -5.3580  -5.2653  -5.1861  -5.1433  -5.0522  -4.9235  -4.7990
    -4.7868  -4.6800  -4.6536  -4.5947  -4.5751  -4.5479  -4.4762  -4.3472
    -4.2427  -4.0902  -3.9944  -3.8581  -3.6860  -3.5970  -3.4970  -3.4262
    -3.3717  -3.3092  -3.2644  -3.1933  -3.1551  -3.0494  -2.9927  -2.7466
    -2.6907  -2.5713  -2.3916  -2.3252  -2.1157  -2.0642  -1.9630  -1.9087
    -1.8286  -1.7573  -1.7004  -1.6647  -1.5540  -1.2713   0.0517   0.1481
     0.8974   0.9646   1.1673   1.1991   1.2914   1.3295   1.3841   1.4400
     1.4661   1.5754   1.6235   1.6895   1.7158   1.7794   1.8694   1.9230
     1.9747   2.0655   2.0951   2.1518

     highest occupied, lowest unoccupied level (ev):    -1.0991   -0.0184

!    total energy              =    -497.26492615 Ry
     Harris-Foulkes estimate   =    -497.26492615 Ry
     estimated scf accuracy    <          3.5E-09 Ry

     The total energy is the sum of the following terms:

     one-electron contribution =   -3471.19190586 Ry
     hartree contribution      =    1773.78695088 Ry
     xc contribution           =    -114.29017052 Ry
     ewald contribution        =    1314.80008808 Ry
     Dispersion Correction     =      -0.36988872 Ry

     convergence has been achieved in  23 iterations

     Forces acting on atoms (cartesian axes, Ry/au):

     atom    1 type  1   force =    -0.00034890    0.01339016    0.00499154
     atom    2 type  2   force =     0.01117656    0.01347572    0.00040432
     atom    3 type  2   force =    -0.00422190    0.01039985   -0.00055042
     atom    4 type  1   force =     0.01984299    0.01123845   -0.01594028
     atom    5 type  2   force =     0.01761335    0.00275143   -0.00010279
     atom    6 type  2   force =     0.00740566   -0.00906040   -0.00003746
     atom    7 type  1   force =     0.01201504   -0.00693744    0.00493002
     atom    8 type  2   force =     0.00051126   -0.00029546    0.00129572
     atom    9 type  2   force =     0.00049059   -0.00028345    0.00177871
     atom   10 type  1   force =     0.00144867    0.00105494   -0.00055375
     atom   11 type  2   force =    -0.01150608    0.01346999   -0.00015061
     atom   12 type  2   force =     0.00377288    0.01058689   -0.00000451
     atom   13 type  1   force =    -0.01975740    0.01140578   -0.01593486
     atom   14 type  2   force =    -0.00001130    0.00000587    0.02843330
     atom   15 type  1   force =     0.00018793   -0.02280377   -0.01594043
     atom   16 type  2   force =     0.00642343   -0.01662892   -0.00010253
     atom   17 type  2   force =     0.01154897   -0.00188284   -0.00003784
     atom   18 type  1   force =    -0.00190470    0.00110041   -0.00060266
     atom   19 type  2   force =    -0.00041801    0.00024120    0.00215254
     atom   20 type  2   force =    -0.00041172    0.00023751    0.00183647
     atom   21 type  1   force =    -0.00018904   -0.00178210   -0.00055427
     atom   22 type  2   force =    -0.01741837    0.00322975   -0.00015063
     atom   23 type  2   force =    -0.00728216   -0.00856053   -0.00000450
     atom   24 type  1   force =    -0.01176988   -0.00639305    0.00499125
     atom   25 type  2   force =    -0.00608117   -0.01641660    0.00040454
     atom   26 type  2   force =    -0.01111668   -0.00154339   -0.00055085

     Total force =     0.080240     Total SCF correction =     0.000164


     Computing stress (Cartesian axis) and pressure

          total   stress  (Ry/bohr**3)                   (kbar)     P=       -5.92
  -0.00005388  -0.00000022   0.00000004           -7.93       -0.03        0.01
  -0.00000022  -0.00005414  -0.00000002           -0.03       -7.96       -0.00
   0.00000004  -0.00000002  -0.00001274            0.01       -0.00       -1.87


     BFGS Geometry Optimization

     number of scf cycles    =   1
     number of bfgs steps    =   0

     enthalpy new            =    -497.2649261473 Ry

     new trust radius        =       0.0284333013 bohr
     new conv_thr            =       0.0000000100 Ry

     new unit-cell volume =   9091.79641 a.u.^3 (  1347.26521 Ang^3 )
     density =      1.73620 g/cm^3

CELL_PARAMETERS (alat= 17.57351883)
   0.996767630   0.000035842   0.000000000
  -0.498352779   0.863244022   0.000000000
   0.000000000   0.000000000   1.946870157

ATOMIC_POSITIONS (angstrom)
Mo            1.5452136965        0.8926845331       11.1618946167
S             0.0064347923        1.7847518311       12.7028748365
S            -0.0017027314        1.7831261557        9.6155538052
Mo            0.0097919759        3.5677896308       11.1508177634
S            -1.5373054802        4.4545443914       12.7036140638
S            -1.5426999338        4.4483023979        9.6148174656
Mo           -1.5412747776        6.2331269727       11.1618618814
S            -3.0930383294        7.1290382023       12.7032879541
S            -3.0930495353        7.1290446316        9.6168450257
Mo            4.6361995011        0.8839712429       11.1589599275
S             3.0853726181        1.7833143525       12.7036591475
S             3.0934467924        1.7817907512        9.6147647317
Mo            3.0789005402        3.5656670350       11.1508208051
S             1.5443056677        4.4516663179        9.6288162266
Mo            1.5425081080        6.2225329645       11.1508176767
S             0.0010074990        7.1189814213       12.7036144484
S             0.0037160019        7.1267741304        9.6148169549
Mo            7.7251676977        0.8831445669       11.1589342470
S             6.1818329101        1.7741886565       12.7038602231
S             6.1818363905        1.7741866748        9.6167564989
Mo            6.1799673107        3.5578554081       11.1589597072
S             4.6256995962        4.4512395473       12.7036589817
S             4.6310561669        4.4450090107        9.6147650358
Mo            4.6269286609        6.2303711935       11.1618945180
S             3.0849862627        7.1169595742       12.7028750554
S             3.0823253966        7.1248195766        9.6155535416



     Writing output data file ./out/3x3_MoS2.save/
     NEW-OLD atomic charge density approx. for the potential

     negative rho (up, down):  4.313E-03 0.000E+00
     extrapolated charge  155.57793, renormalised to  156.00000

     total cpu time spent up to now is    10390.4 secs

     Self-consistent Calculation

     iteration #  1     ecut=    60.00 Ry     beta= 0.70
     Davidson diagonalization with overlap
     c_bands:  1 eigenvalues not converged
     c_bands:  1 eigenvalues not converged
     ethr =  1.00E-06,  avg # of iterations = 13.4

     negative rho (up, down):  1.145E-03 0.000E+00

     total cpu time spent up to now is    11421.3 secs

     total energy              =    -497.20855402 Ry
     Harris-Foulkes estimate   =    -506.49313095 Ry
     estimated scf accuracy    <       0.05875700 Ry

     iteration #  2     ecut=    60.00 Ry     beta= 0.70
     Davidson diagonalization with overlap
     ethr =  3.77E-05,  avg # of iterations =  6.0

     negative rho (up, down):  2.825E-04 0.000E+00

     total cpu time spent up to now is    12142.0 secs

     total energy              =    -497.19487057 Ry
     Harris-Foulkes estimate   =    -497.42193819 Ry
     estimated scf accuracy    <       0.97293116 Ry

     iteration #  3     ecut=    60.00 Ry     beta= 0.70
     Davidson diagonalization with overlap
     ethr =  3.77E-05,  avg # of iterations =  6.0

     negative rho (up, down):  7.405E-05 0.000E+00

     total cpu time spent up to now is    12728.9 secs

     total energy              =    -497.27285850 Ry
     Harris-Foulkes estimate   =    -497.27752436 Ry
     estimated scf accuracy    <       0.03681745 Ry

     iteration #  4     ecut=    60.00 Ry     beta= 0.70
     Davidson diagonalization with overlap
     ethr =  2.36E-05,  avg # of iterations =  1.0

     negative rho (up, down):  2.849E-05 0.000E+00

     total cpu time spent up to now is    13007.6 secs

     total energy              =    -497.27214973 Ry
     Harris-Foulkes estimate   =    -497.27418071 Ry
     estimated scf accuracy    <       0.02202251 Ry

     iteration #  5     ecut=    60.00 Ry     beta= 0.70
     Davidson diagonalization with overlap
     ethr =  1.41E-05,  avg # of iterations =  1.0

     negative rho (up, down):  1.169E-05 0.000E+00

     total cpu time spent up to now is    13285.9 secs

     total energy              =    -497.27052550 Ry
     Harris-Foulkes estimate   =    -497.27279562 Ry
     estimated scf accuracy    <       0.01261143 Ry

     iteration #  6     ecut=    60.00 Ry     beta= 0.70
     Davidson diagonalization with overlap
     ethr =  8.08E-06,  avg # of iterations =  1.1

     negative rho (up, down):  5.524E-06 0.000E+00

     total cpu time spent up to now is    13565.8 secs

     total energy              =    -497.27070667 Ry
     Harris-Foulkes estimate   =    -497.27121663 Ry
     estimated scf accuracy    <       0.00278932 Ry

     iteration #  7     ecut=    60.00 Ry     beta= 0.70
[...]
    -3.1358  -3.1081  -3.0864  -3.0196  -2.9582  -2.9126  -2.8640  -2.7199
    -2.6439  -2.5170  -2.3064  -2.2659  -2.0666  -2.0364  -1.9219  -1.8932
    -1.8044  -1.7684  -1.5649  -1.5182  -1.4133  -1.2320   0.2153   0.3059
     1.0131   1.0768   1.2108   1.2509   1.3984   1.4486   1.5071   1.6470
     1.6903   1.7382   1.8334   1.8940   1.9205   1.9877   2.0307   2.0476
     2.0714   2.1905   2.2555   2.3593

          k =-0.4046-0.3504 0.0000 ( 70167 PWs)   bands (ev):

   -15.2864 -15.1006 -14.6730 -14.3001 -14.2153 -14.0940 -13.8652 -13.7376
   -13.6427 -13.5879 -13.5637 -13.5192 -13.3797 -13.2960 -13.2233 -13.2131
   -13.1727  -7.3258  -6.9939  -6.8980  -6.7654  -6.7215  -6.6997  -6.5777
    -6.5570  -6.4691  -6.4138  -6.3422  -6.2711  -6.0199  -5.9402  -5.4270
    -5.3306  -5.2902  -5.1802  -5.0988  -5.0710  -4.9826  -4.8602  -4.7321
    -4.6806  -4.6237  -4.5914  -4.5321  -4.4655  -4.4319  -4.3543  -4.2491
    -4.1235  -4.0253  -3.9663  -3.7939  -3.6085  -3.5016  -3.3565  -3.2800
    -3.2549  -3.1640  -3.1296  -3.0989  -3.0706  -2.9389  -2.9071  -2.7120
    -2.6359  -2.4760  -2.2542  -2.2054  -2.0367  -1.9898  -1.8747  -1.7945
    -1.7305  -1.6915  -1.6268  -1.5798  -1.4598  -1.2744   0.2168   0.3267
     0.9793   1.0684   1.2494   1.3089   1.4320   1.4801   1.5110   1.6099
     1.6868   1.7606   1.7963   1.8700   1.8770   1.9437   2.0310   2.1391
     2.1666   2.2306   2.2819   2.3549

          k = 0.5057 0.1752 0.0000 ( 70167 PWs)   bands (ev):

   -15.2864 -15.1006 -14.6731 -14.3001 -14.2153 -14.0940 -13.8652 -13.7376
   -13.6427 -13.5880 -13.5638 -13.5192 -13.3797 -13.2960 -13.2233 -13.2131
   -13.1726  -7.3258  -6.9938  -6.8980  -6.7654  -6.7215  -6.6996  -6.5777
    -6.5570  -6.4691  -6.4137  -6.3422  -6.2711  -6.0200  -5.9401  -5.4270
    -5.3306  -5.2902  -5.1802  -5.0987  -5.0711  -4.9826  -4.8602  -4.7321
    -4.6806  -4.6237  -4.5915  -4.5322  -4.4655  -4.4319  -4.3543  -4.2491
    -4.1234  -4.0254  -3.9663  -3.7939  -3.6085  -3.5016  -3.3564  -3.2799
    -3.2550  -3.1640  -3.1296  -3.0989  -3.0706  -2.9389  -2.9071  -2.7120
    -2.6359  -2.4760  -2.2542  -2.2054  -2.0367  -1.9898  -1.8747  -1.7945
    -1.7305  -1.6915  -1.6268  -1.5798  -1.4598  -1.2744   0.2168   0.3267
     0.9793   1.0684   1.2494   1.3089   1.4320   1.4801   1.5111   1.6099
     1.6868   1.7606   1.7963   1.8700   1.8770   1.9437   2.0310   2.1392
     2.1665   2.2306   2.2819   2.3549

          k = 0.4046 0.1168 0.0000 ( 70206 PWs)   bands (ev):

   -15.4055 -14.9331 -14.6472 -14.3141 -14.2445 -14.0105 -13.8786 -13.8439
   -13.6695 -13.6207 -13.5689 -13.4609 -13.3869 -13.3335 -13.2681 -13.1831
   -13.1151  -7.2645  -7.0168  -6.8419  -6.7997  -6.7600  -6.6741  -6.5766
    -6.5284  -6.4815  -6.4284  -6.3380  -6.2312  -5.9806  -5.8572  -5.4330
    -5.3570  -5.2954  -5.2007  -5.1371  -5.0843  -5.0313  -4.9291  -4.8639
    -4.7746  -4.6246  -4.5763  -4.5153  -4.4524  -4.4138  -4.2942  -4.2301
    -4.1473  -4.0836  -3.9215  -3.8550  -3.6070  -3.4921  -3.3637  -3.2302
    -3.1358  -3.1081  -3.0863  -3.0196  -2.9581  -2.9126  -2.8640  -2.7199
    -2.6439  -2.5170  -2.3064  -2.2659  -2.0666  -2.0364  -1.9220  -1.8932
    -1.8044  -1.7684  -1.5649  -1.5182  -1.4133  -1.2320   0.2153   0.3059
     1.0131   1.0769   1.2108   1.2509   1.3984   1.4486   1.5071   1.6470
     1.6904   1.7381   1.8334   1.8941   1.9205   1.9877   2.0307   2.0476
     2.0713   2.1905   2.2555   2.3593

          k = 0.3034 0.0584 0.0000 ( 70222 PWs)   bands (ev):

   -15.5025 -14.7426 -14.5958 -14.3542 -14.2294 -14.0099 -13.9035 -13.8445
   -13.7634 -13.6688 -13.5967 -13.4554 -13.3610 -13.3437 -13.3237 -13.1476
   -13.0615  -7.1538  -7.0093  -6.9244  -6.7830  -6.7347  -6.6947  -6.5852
    -6.4800  -6.4598  -6.4046  -6.3408  -6.1377  -5.9224  -5.7532  -5.4932
    -5.3563  -5.3059  -5.2365  -5.1898  -5.1428  -5.0984  -5.0618  -5.0297
    -4.8547  -4.7331  -4.6071  -4.5004  -4.4641  -4.3508  -4.2937  -4.2362
    -4.0917  -4.0258  -3.8897  -3.6930  -3.6419  -3.5127  -3.3834  -3.1555
    -3.1046  -3.0402  -3.0015  -2.9358  -2.8949  -2.7831  -2.7580  -2.7109
    -2.6128  -2.5996  -2.4032  -2.3423  -2.1326  -2.1033  -2.0365  -1.9913
    -1.9035  -1.8723  -1.5250  -1.4138  -1.3468  -1.1773   0.2101   0.2672
     1.0709   1.1011   1.1584   1.2069   1.3190   1.4087   1.4868   1.6051
     1.6526   1.7923   1.8462   1.8696   1.9108   1.9401   1.9580   2.0544
     2.1328   2.1681   2.2609   2.3141

          k = 0.2023 0.0000 0.0000 ( 70219 PWs)   bands (ev):

   -15.5689 -14.5570 -14.5112 -14.3858 -14.2253 -14.1025 -13.9189 -13.8600
   -13.7805 -13.7132 -13.6153 -13.5000 -13.4112 -13.3352 -13.3009 -13.1168
   -13.0217  -7.0270  -7.0187  -6.9256  -6.8129  -6.7778  -6.6901  -6.6128
    -6.4888  -6.4211  -6.2854  -6.2802  -6.0159  -5.8434  -5.6917  -5.5531
    -5.3826  -5.3395  -5.3111  -5.2768  -5.2455  -5.2101  -5.2073  -5.0712
    -4.9026  -4.8638  -4.7309  -4.4976  -4.4341  -4.3243  -4.2032  -4.1447
    -3.9864  -3.9439  -3.8365  -3.7319  -3.5184  -3.4693  -3.4022  -3.2235
    -3.1006  -3.0342  -2.9295  -2.8279  -2.7974  -2.7476  -2.7230  -2.7062
    -2.5984  -2.4975  -2.4632  -2.3853  -2.2077  -2.1841  -2.1628  -2.0937
    -2.0144  -1.9693  -1.5262  -1.2983  -1.2727  -1.1322   0.1999   0.2218
     1.0755   1.0766   1.1607   1.2178   1.3078   1.3920   1.4643   1.5558
     1.5901   1.7107   1.7624   1.7759   1.8590   1.9027   2.0109   2.0902
     2.1289   2.2048   2.2628   2.4203

          k =-0.3034-0.4088 0.0000 ( 70210 PWs)   bands (ev):

   -15.3119 -14.9981 -14.8231 -14.2408 -14.1090 -14.0442 -13.9555 -13.8719
   -13.6034 -13.5704 -13.5365 -13.4938 -13.4032 -13.3255 -13.2229 -13.2121
   -13.1483  -7.2740  -7.1030  -6.9278  -6.7502  -6.6774  -6.6502  -6.6008
    -6.5455  -6.4977  -6.4222  -6.3112  -6.2731  -6.0204  -5.8285  -5.5535
    -5.3800  -5.3482  -5.2167  -5.0491  -4.9874  -4.9191  -4.8508  -4.7847
    -4.6615  -4.6346  -4.6061  -4.5617  -4.4684  -4.4155  -4.3203  -4.2673
    -4.1046  -4.0119  -3.8873  -3.8046  -3.6020  -3.5616  -3.5123  -3.2949
    -3.2625  -3.1564  -3.1137  -3.0702  -2.9971  -2.9203  -2.8424  -2.6711
    -2.6430  -2.5066  -2.4137  -2.1930  -1.9982  -1.9460  -1.8518  -1.8116
    -1.7755  -1.6986  -1.6389  -1.5694  -1.4225  -1.2611   0.1859   0.3637
     1.0321   1.1088   1.1884   1.2284   1.4262   1.4974   1.5614   1.6237
     1.6741   1.7269   1.7758   1.8484   1.9101   1.9711   2.0410   2.1068
     2.1449   2.1737   2.2371   2.3386

          k =-0.4046-0.4672 0.0000 ( 70124 PWs)   bands (ev):

   -15.2116 -15.1195 -14.8403 -14.1873 -14.1405 -14.0788 -13.9533 -13.7793
   -13.6929 -13.5281 -13.5219 -13.4986 -13.3752 -13.3375 -13.2284 -13.1892
   -13.1823  -7.2986  -7.0758  -7.0007  -6.6964  -6.6665  -6.6468  -6.5952
    -6.5771  -6.5213  -6.4071  -6.2994  -6.2635  -6.0321  -5.8952  -5.5413
    -5.3861  -5.3510  -5.2143  -5.0290  -4.9530  -4.8823  -4.8592  -4.7037
    -4.6730  -4.6553  -4.5793  -4.5362  -4.4868  -4.4247  -4.3293  -4.2120
    -4.1040  -4.0212  -3.9273  -3.7902  -3.7222  -3.4915  -3.3800  -3.3119
    -3.2575  -3.2397  -3.1496  -3.1287  -3.0926  -2.9335  -2.8455  -2.6861
    -2.6467  -2.4975  -2.3839  -2.1587  -1.9768  -1.9223  -1.8160  -1.7808
    -1.7331  -1.6962  -1.6309  -1.6095  -1.4457  -1.2768   0.1816   0.3782
     1.0193   1.1207   1.2204   1.2416   1.4064   1.4968   1.5749   1.6276
     1.6606   1.7311   1.7638   1.8079   1.8911   1.9597   2.0653   2.1607
     2.1752   2.1887   2.2524   2.2829

          k = 0.5057 0.0584 0.0000 ( 70208 PWs)   bands (ev):

   -15.3119 -14.9981 -14.8232 -14.2408 -14.1090 -14.0442 -13.9555 -13.8718
   -13.6034 -13.5704 -13.5365 -13.4938 -13.4031 -13.3256 -13.2229 -13.2121
   -13.1483  -7.2740  -7.1030  -6.9278  -6.7502  -6.6775  -6.6501  -6.6008
    -6.5455  -6.4977  -6.4222  -6.3111  -6.2731  -6.0205  -5.8285  -5.5535
    -5.3800  -5.3482  -5.2167  -5.0491  -4.9874  -4.9191  -4.8508  -4.7847
    -4.6615  -4.6346  -4.6061  -4.5618  -4.4685  -4.4155  -4.3203  -4.2673
    -4.1046  -4.0119  -3.8873  -3.8045  -3.6020  -3.5617  -3.5123  -3.2949
    -3.2625  -3.1564  -3.1137  -3.0702  -2.9971  -2.9202  -2.8424  -2.6712
    -2.6430  -2.5066  -2.4137  -2.1930  -1.9982  -1.9460  -1.8518  -1.8116
    -1.7755  -1.6986  -1.6388  -1.5695  -1.4225  -1.2611   0.1859   0.3637
     1.0320   1.1088   1.1884   1.2283   1.4263   1.4974   1.5615   1.6237
     1.6742   1.7269   1.7757   1.8484   1.9101   1.9711   2.0411   2.1068
     2.1448   2.1737   2.2370   2.3386

          k = 0.4046 0.0000 0.0000 ( 70273 PWs)   bands (ev):

   -15.4212 -14.8436 -14.7559 -14.3031 -14.1214 -14.0199 -13.9511 -13.9001
   -13.6551 -13.5908 -13.5499 -13.4900 -13.4020 -13.3274 -13.2713 -13.1793
   -13.1039  -7.2150  -7.0919  -6.8507  -6.8123  -6.6911  -6.6486  -6.6228
    -6.5206  -6.4729  -6.4477  -6.3302  -6.2187  -5.9862  -5.7408  -5.5590
    -5.3669  -5.3339  -5.2225  -5.1099  -5.0348  -5.0059  -4.9476  -4.8820
    -4.7402  -4.6391  -4.6233  -4.5478  -4.4791  -4.4472  -4.2871  -4.2110
    -4.0896  -4.0269  -3.9192  -3.7693  -3.6803  -3.5509  -3.3960  -3.2303
    -3.1441  -3.1269  -3.0817  -3.0280  -2.9198  -2.8889  -2.7410  -2.7004
    -2.5873  -2.5174  -2.4775  -2.2820  -2.0557  -2.0113  -1.9455  -1.8894
    -1.8343  -1.7833  -1.5412  -1.5319  -1.3860  -1.2211   0.1972   0.3229
     1.0515   1.1018   1.1580   1.2070   1.3969   1.4406   1.5646   1.6118
     1.6761   1.7600   1.8275   1.9158   1.9228   1.9425   2.0328   2.0380
     2.0751   2.1718   2.2603   2.3465

          k = 0.3034-0.0584 0.0000 ( 70222 PWs)   bands (ev):

   -15.5025 -14.7427 -14.5957 -14.3542 -14.2294 -14.0099 -13.9035 -13.8445
   -13.7634 -13.6688 -13.5967 -13.4554 -13.3610 -13.3437 -13.3238 -13.1476
   -13.0615  -7.1538  -7.0093  -6.9244  -6.7830  -6.7347  -6.6946  -6.5852
    -6.4800  -6.4599  -6.4046  -6.3407  -6.1377  -5.9224  -5.7532  -5.4932
    -5.3564  -5.3059  -5.2364  -5.1898  -5.1428  -5.0983  -5.0618  -5.0298
    -4.8547  -4.7332  -4.6071  -4.5005  -4.4641  -4.3508  -4.2937  -4.2362
    -4.0918  -4.0258  -3.8897  -3.6930  -3.6419  -3.5127  -3.3834  -3.1554
    -3.1046  -3.0402  -3.0015  -2.9358  -2.8949  -2.7830  -2.7580  -2.7109
    -2.6128  -2.5996  -2.4032  -2.3423  -2.1327  -2.1033  -2.0365  -1.9912
    -1.9035  -1.8723  -1.5251  -1.4138  -1.3468  -1.1773   0.2101   0.2672
     1.0709   1.1011   1.1584   1.2069   1.3190   1.4087   1.4868   1.6051
     1.6526   1.7924   1.8462   1.8695   1.9108   1.9401   1.9580   2.0544
     2.1328   2.1681   2.2609   2.3142

          k =-0.4046-0.5840 0.0000 ( 70124 PWs)   bands (ev):

   -15.1967 -15.0674 -14.9454 -14.1751 -14.0898 -14.0230 -13.9639 -13.8757
   -13.7107 -13.5149 -13.4935 -13.4478 -13.4074 -13.3586 -13.2304 -13.1910
   -13.1710  -7.2671  -7.1275  -7.0384  -6.6720  -6.6401  -6.6193  -6.6112
    -6.5757  -6.5455  -6.4127  -6.3206  -6.2156  -6.0324  -5.8348  -5.6620
    -5.3855  -5.3746  -5.2275  -4.9926  -4.9129  -4.8541  -4.8039  -4.7103
    -4.6873  -4.6520  -4.6427  -4.5366  -4.4441  -4.4118  -4.3242  -4.2575
    -4.0775  -3.9875  -3.9074  -3.7437  -3.6812  -3.6407  -3.5140  -3.3439
    -3.2315  -3.1776  -3.1403  -3.1124  -2.9985  -2.9873  -2.8102  -2.7297
    -2.6369  -2.5464  -2.4437  -2.1217  -1.9367  -1.8937  -1.8239  -1.7505
    -1.7423  -1.6975  -1.6513  -1.6138  -1.4341  -1.2751   0.1686   0.3976
     1.0901   1.1246   1.1774   1.2125   1.3855   1.5138   1.6136   1.6246
     1.6649   1.7103   1.7260   1.7730   1.9045   2.0095   2.0729   2.1268
     2.1518   2.1745   2.2456   2.2808

          k = 0.5057-0.0584 0.0000 ( 70206 PWs)   bands (ev):

   -15.3119 -14.9982 -14.8231 -14.2408 -14.1090 -14.0442 -13.9555 -13.8719
   -13.6034 -13.5704 -13.5364 -13.4938 -13.4031 -13.3256 -13.2229 -13.2121
   -13.1483  -7.2740  -7.1030  -6.9278  -6.7502  -6.6774  -6.6501  -6.6008
    -6.5455  -6.4977  -6.4222  -6.3111  -6.2731  -6.0205  -5.8285  -5.5535
    -5.3800  -5.3482  -5.2167  -5.0491  -4.9874  -4.9191  -4.8508  -4.7847
    -4.6616  -4.6346  -4.6061  -4.5617  -4.4685  -4.4156  -4.3203  -4.2672
    -4.1047  -4.0119  -3.8873  -3.8046  -3.6019  -3.5617  -3.5123  -3.2949
    -3.2625  -3.1564  -3.1137  -3.0702  -2.9971  -2.9202  -2.8424  -2.6711
    -2.6430  -2.5066  -2.4137  -2.1930  -1.9983  -1.9460  -1.8517  -1.8116
    -1.7756  -1.6986  -1.6388  -1.5695  -1.4225  -1.2611   0.1859   0.3637
     1.0320   1.1088   1.1884   1.2283   1.4262   1.4973   1.5614   1.6238
     1.6741   1.7269   1.7757   1.8484   1.9101   1.9711   2.0410   2.1068
     2.1448   2.1737   2.2370   2.3386

          k = 0.4046-0.1168 0.0000 ( 70206 PWs)   bands (ev):

   -15.4055 -14.9331 -14.6471 -14.3141 -14.2445 -14.0105 -13.8785 -13.8439
   -13.6695 -13.6207 -13.5689 -13.4608 -13.3869 -13.3335 -13.2681 -13.1831
   -13.1151  -7.2645  -7.0168  -6.8419  -6.7996  -6.7600  -6.6741  -6.5767
    -6.5284  -6.4815  -6.4284  -6.3379  -6.2312  -5.9806  -5.8573  -5.4330
    -5.3571  -5.2954  -5.2007  -5.1371  -5.0843  -5.0313  -4.9291  -4.8639
    -4.7746  -4.6246  -4.5763  -4.5153  -4.4524  -4.4139  -4.2942  -4.2301
    -4.1473  -4.0836  -3.9215  -3.8550  -3.6070  -3.4920  -3.3636  -3.2301
    -3.1358  -3.1081  -3.0863  -3.0196  -2.9581  -2.9126  -2.8640  -2.7199
    -2.6439  -2.5170  -2.3064  -2.2658  -2.0666  -2.0363  -1.9219  -1.8933
    -1.8044  -1.7684  -1.5649  -1.5182  -1.4133  -1.2320   0.2153   0.3059
     1.0130   1.0769   1.2108   1.2509   1.3984   1.4486   1.5071   1.6471
     1.6904   1.7382   1.8334   1.8941   1.9205   1.9877   2.0307   2.0476
     2.0712   2.1904   2.2555   2.3592

          k = 0.5057-0.1752 0.0000 ( 70167 PWs)   bands (ev):

   -15.2864 -15.1007 -14.6730 -14.3001 -14.2153 -14.0940 -13.8651 -13.7376
   -13.6427 -13.5880 -13.5638 -13.5192 -13.3797 -13.2960 -13.2234 -13.2131
   -13.1726  -7.3258  -6.9938  -6.8979  -6.7654  -6.7215  -6.6996  -6.5777
    -6.5570  -6.4691  -6.4137  -6.3422  -6.2710  -6.0200  -5.9402  -5.4270
    -5.3307  -5.2901  -5.1802  -5.0987  -5.0710  -4.9826  -4.8602  -4.7321
    -4.6806  -4.6238  -4.5915  -4.5321  -4.4654  -4.4320  -4.3544  -4.2492
    -4.1234  -4.0254  -3.9664  -3.7939  -3.6085  -3.5016  -3.3563  -3.2799
    -3.2549  -3.1640  -3.1296  -3.0989  -3.0706  -2.9389  -2.9071  -2.7120
    -2.6359  -2.4760  -2.2541  -2.2053  -2.0368  -1.9897  -1.8747  -1.7945
    -1.7305  -1.6915  -1.6268  -1.5798  -1.4598  -1.2744   0.2168   0.3267
     0.9793   1.0684   1.2494   1.3089   1.4320   1.4801   1.5110   1.6101
     1.6868   1.7606   1.7963   1.8700   1.8770   1.9437   2.0310   2.1391
     2.1665   2.2305   2.2819   2.3549

     highest occupied, lowest unoccupied level (ev):    -1.0925    0.1686

!    total energy              =    -497.28224654 Ry
     Harris-Foulkes estimate   =    -497.28224654 Ry
     estimated scf accuracy    <          4.5E-11 Ry

     The total energy is the sum of the following terms:

     one-electron contribution =   -3521.39132934 Ry
     hartree contribution      =    1799.47877634 Ry
     xc contribution           =    -114.53729705 Ry
     ewald contribution        =    1339.53752614 Ry
     Dispersion Correction     =      -0.36992264 Ry

     convergence has been achieved in  26 iterations

     Forces acting on atoms (cartesian axes, Ry/au):

     atom    1 type  1   force =     0.00000066   -0.00008818   -0.00040253
     atom    2 type  2   force =     0.00033754    0.00068613    0.00010728
     atom    3 type  2   force =    -0.00012661    0.00031544   -0.00033642
     atom    4 type  1   force =    -0.00077740   -0.00047112    0.00063698
     atom    5 type  2   force =     0.00075204   -0.00004913    0.00010901
     atom    6 type  2   force =     0.00018784   -0.00027417   -0.00031485
     atom    7 type  1   force =    -0.00006538    0.00003775   -0.00039231
     atom    8 type  2   force =     0.00000031   -0.00000014    0.00016884
     atom    9 type  2   force =     0.00000346   -0.00000202    0.00073140
     atom   10 type  1   force =    -0.00001339   -0.00000924    0.00016220
     atom   11 type  2   force =    -0.00034457    0.00068589    0.00009159
     atom   12 type  2   force =     0.00013431    0.00030373   -0.00032249
     atom   13 type  1   force =     0.00076809   -0.00044370    0.00062909
     atom   14 type  2   force =    -0.00001834    0.00001060   -0.00062242
     atom   15 type  1   force =     0.00001898    0.00090855    0.00063683
     atom   16 type  2   force =     0.00041849   -0.00062659    0.00010913
     atom   17 type  2   force =     0.00033133   -0.00002537   -0.00031488
     atom   18 type  1   force =     0.00002972   -0.00001702    0.00015071
     atom   19 type  2   force =     0.00001235   -0.00000723    0.00049692
     atom   20 type  2   force =    -0.00000347    0.00000183   -0.00062364
     atom   21 type  1   force =     0.00000132    0.00001620    0.00016217
     atom   22 type  2   force =    -0.00076633   -0.00004444    0.00009165
     atom   23 type  2   force =    -0.00019601   -0.00026800   -0.00032266
     atom   24 type  1   force =     0.00007671    0.00004361   -0.00040241
     atom   25 type  2   force =    -0.00042531   -0.00063532    0.00010746
     atom   26 type  2   force =    -0.00033637   -0.00004809   -0.00033667

     Total force =     0.003265     Total SCF correction =     0.000015


     Computing stress (Cartesian axis) and pressure

          total   stress  (Ry/bohr**3)                   (kbar)     P=        0.01
   0.00000156   0.00000002   0.00000000            0.23        0.00        0.00
   0.00000002   0.00000158  -0.00000000            0.00        0.23       -0.00
   0.00000000  -0.00000000  -0.00000292            0.00       -0.00       -0.43


     Writing output data file ./out/3x3_MoS2.save/

     init_run     :   1734.40s CPU   1753.95s WALL (       2 calls)
     electrons    : 109907.36s CPU 111412.65s WALL (      13 calls)
     update_pot   :     58.35s CPU     58.57s WALL (      11 calls)
     forces       :   2223.53s CPU   2231.61s WALL (      13 calls)
     stress       :   2838.91s CPU   2850.91s WALL (      13 calls)

     Called by init_run:
     wfcinit      :   1724.95s CPU   1744.38s WALL (       2 calls)
     potinit      :      4.46s CPU      4.51s WALL (       2 calls)
     hinit0       :      2.57s CPU      2.60s WALL (       2 calls)

     Called by electrons:
     c_bands      : 107054.13s CPU 108351.74s WALL (     242 calls)
     sum_band     :   2793.27s CPU   2995.92s WALL (     242 calls)
     v_of_rho     :     20.31s CPU     21.21s WALL (     253 calls)
     mix_rho      :     23.62s CPU     25.34s WALL (     242 calls)

     Called by c_bands:
     init_us_2    :    422.45s CPU    427.08s WALL (   26624 calls)
     cegterg      : 105849.15s CPU 107127.60s WALL (   12584 calls)

     Called by sum_band:

     Called by *egterg:
     h_psi        :  69063.53s CPU  70245.91s WALL (   50643 calls)
     g_psi        :     43.52s CPU     43.78s WALL (   37955 calls)
     cdiaghg      :   2270.65s CPU   2273.26s WALL (   49863 calls)

     Called by h_psi:
     h_psi:calbec :  27803.09s CPU  27893.99s WALL (   50643 calls)
     vloc_psi     :  13433.10s CPU  14450.90s WALL (   50643 calls)
     add_vuspsi   :  27660.93s CPU  27730.70s WALL (   50643 calls)

     General routines
     calbec       :  30339.79s CPU  30438.26s WALL (   54023 calls)
     fft          :     41.38s CPU     44.22s WALL (    1304 calls)
     ffts         :      1.98s CPU      2.26s WALL (     495 calls)
     fftw         :  14758.39s CPU  15881.36s WALL ( 7894994 calls)
     interpolate  :      9.99s CPU     10.60s WALL (     253 calls)

     Parallel routines
     fft_scatt_xy :   1522.35s CPU   1620.86s WALL ( 7896793 calls)
     fft_scatt_yz :   4253.98s CPU   4681.16s WALL ( 7896793 calls)

     PWSCF        :   1d 8h26m CPU   1d 8h51m WALL


   This run was terminated on:  12:24:22  12Apr2022            

=------------------------------------------------------------------------------=
   JOB DONE.
=------------------------------------------------------------------------------=
